# vtk DataFile Version 2.0
generated by CFD-lab course output (written by Tobias Neckel) 
ASCII

DATASET STRUCTURED_GRID
DIMENSIONS  26 26 1 
POINTS 676 float

0.000000 0.000000 0
1.000000 0.000000 0
2.000000 0.000000 0
3.000000 0.000000 0
4.000000 0.000000 0
5.000000 0.000000 0
6.000000 0.000000 0
7.000000 0.000000 0
8.000000 0.000000 0
9.000000 0.000000 0
10.000000 0.000000 0
11.000000 0.000000 0
12.000000 0.000000 0
13.000000 0.000000 0
14.000000 0.000000 0
15.000000 0.000000 0
16.000000 0.000000 0
17.000000 0.000000 0
18.000000 0.000000 0
19.000000 0.000000 0
20.000000 0.000000 0
21.000000 0.000000 0
22.000000 0.000000 0
23.000000 0.000000 0
24.000000 0.000000 0
25.000000 0.000000 0
0.000000 1.000000 0
1.000000 1.000000 0
2.000000 1.000000 0
3.000000 1.000000 0
4.000000 1.000000 0
5.000000 1.000000 0
6.000000 1.000000 0
7.000000 1.000000 0
8.000000 1.000000 0
9.000000 1.000000 0
10.000000 1.000000 0
11.000000 1.000000 0
12.000000 1.000000 0
13.000000 1.000000 0
14.000000 1.000000 0
15.000000 1.000000 0
16.000000 1.000000 0
17.000000 1.000000 0
18.000000 1.000000 0
19.000000 1.000000 0
20.000000 1.000000 0
21.000000 1.000000 0
22.000000 1.000000 0
23.000000 1.000000 0
24.000000 1.000000 0
25.000000 1.000000 0
0.000000 2.000000 0
1.000000 2.000000 0
2.000000 2.000000 0
3.000000 2.000000 0
4.000000 2.000000 0
5.000000 2.000000 0
6.000000 2.000000 0
7.000000 2.000000 0
8.000000 2.000000 0
9.000000 2.000000 0
10.000000 2.000000 0
11.000000 2.000000 0
12.000000 2.000000 0
13.000000 2.000000 0
14.000000 2.000000 0
15.000000 2.000000 0
16.000000 2.000000 0
17.000000 2.000000 0
18.000000 2.000000 0
19.000000 2.000000 0
20.000000 2.000000 0
21.000000 2.000000 0
22.000000 2.000000 0
23.000000 2.000000 0
24.000000 2.000000 0
25.000000 2.000000 0
0.000000 3.000000 0
1.000000 3.000000 0
2.000000 3.000000 0
3.000000 3.000000 0
4.000000 3.000000 0
5.000000 3.000000 0
6.000000 3.000000 0
7.000000 3.000000 0
8.000000 3.000000 0
9.000000 3.000000 0
10.000000 3.000000 0
11.000000 3.000000 0
12.000000 3.000000 0
13.000000 3.000000 0
14.000000 3.000000 0
15.000000 3.000000 0
16.000000 3.000000 0
17.000000 3.000000 0
18.000000 3.000000 0
19.000000 3.000000 0
20.000000 3.000000 0
21.000000 3.000000 0
22.000000 3.000000 0
23.000000 3.000000 0
24.000000 3.000000 0
25.000000 3.000000 0
0.000000 4.000000 0
1.000000 4.000000 0
2.000000 4.000000 0
3.000000 4.000000 0
4.000000 4.000000 0
5.000000 4.000000 0
6.000000 4.000000 0
7.000000 4.000000 0
8.000000 4.000000 0
9.000000 4.000000 0
10.000000 4.000000 0
11.000000 4.000000 0
12.000000 4.000000 0
13.000000 4.000000 0
14.000000 4.000000 0
15.000000 4.000000 0
16.000000 4.000000 0
17.000000 4.000000 0
18.000000 4.000000 0
19.000000 4.000000 0
20.000000 4.000000 0
21.000000 4.000000 0
22.000000 4.000000 0
23.000000 4.000000 0
24.000000 4.000000 0
25.000000 4.000000 0
0.000000 5.000000 0
1.000000 5.000000 0
2.000000 5.000000 0
3.000000 5.000000 0
4.000000 5.000000 0
5.000000 5.000000 0
6.000000 5.000000 0
7.000000 5.000000 0
8.000000 5.000000 0
9.000000 5.000000 0
10.000000 5.000000 0
11.000000 5.000000 0
12.000000 5.000000 0
13.000000 5.000000 0
14.000000 5.000000 0
15.000000 5.000000 0
16.000000 5.000000 0
17.000000 5.000000 0
18.000000 5.000000 0
19.000000 5.000000 0
20.000000 5.000000 0
21.000000 5.000000 0
22.000000 5.000000 0
23.000000 5.000000 0
24.000000 5.000000 0
25.000000 5.000000 0
0.000000 6.000000 0
1.000000 6.000000 0
2.000000 6.000000 0
3.000000 6.000000 0
4.000000 6.000000 0
5.000000 6.000000 0
6.000000 6.000000 0
7.000000 6.000000 0
8.000000 6.000000 0
9.000000 6.000000 0
10.000000 6.000000 0
11.000000 6.000000 0
12.000000 6.000000 0
13.000000 6.000000 0
14.000000 6.000000 0
15.000000 6.000000 0
16.000000 6.000000 0
17.000000 6.000000 0
18.000000 6.000000 0
19.000000 6.000000 0
20.000000 6.000000 0
21.000000 6.000000 0
22.000000 6.000000 0
23.000000 6.000000 0
24.000000 6.000000 0
25.000000 6.000000 0
0.000000 7.000000 0
1.000000 7.000000 0
2.000000 7.000000 0
3.000000 7.000000 0
4.000000 7.000000 0
5.000000 7.000000 0
6.000000 7.000000 0
7.000000 7.000000 0
8.000000 7.000000 0
9.000000 7.000000 0
10.000000 7.000000 0
11.000000 7.000000 0
12.000000 7.000000 0
13.000000 7.000000 0
14.000000 7.000000 0
15.000000 7.000000 0
16.000000 7.000000 0
17.000000 7.000000 0
18.000000 7.000000 0
19.000000 7.000000 0
20.000000 7.000000 0
21.000000 7.000000 0
22.000000 7.000000 0
23.000000 7.000000 0
24.000000 7.000000 0
25.000000 7.000000 0
0.000000 8.000000 0
1.000000 8.000000 0
2.000000 8.000000 0
3.000000 8.000000 0
4.000000 8.000000 0
5.000000 8.000000 0
6.000000 8.000000 0
7.000000 8.000000 0
8.000000 8.000000 0
9.000000 8.000000 0
10.000000 8.000000 0
11.000000 8.000000 0
12.000000 8.000000 0
13.000000 8.000000 0
14.000000 8.000000 0
15.000000 8.000000 0
16.000000 8.000000 0
17.000000 8.000000 0
18.000000 8.000000 0
19.000000 8.000000 0
20.000000 8.000000 0
21.000000 8.000000 0
22.000000 8.000000 0
23.000000 8.000000 0
24.000000 8.000000 0
25.000000 8.000000 0
0.000000 9.000000 0
1.000000 9.000000 0
2.000000 9.000000 0
3.000000 9.000000 0
4.000000 9.000000 0
5.000000 9.000000 0
6.000000 9.000000 0
7.000000 9.000000 0
8.000000 9.000000 0
9.000000 9.000000 0
10.000000 9.000000 0
11.000000 9.000000 0
12.000000 9.000000 0
13.000000 9.000000 0
14.000000 9.000000 0
15.000000 9.000000 0
16.000000 9.000000 0
17.000000 9.000000 0
18.000000 9.000000 0
19.000000 9.000000 0
20.000000 9.000000 0
21.000000 9.000000 0
22.000000 9.000000 0
23.000000 9.000000 0
24.000000 9.000000 0
25.000000 9.000000 0
0.000000 10.000000 0
1.000000 10.000000 0
2.000000 10.000000 0
3.000000 10.000000 0
4.000000 10.000000 0
5.000000 10.000000 0
6.000000 10.000000 0
7.000000 10.000000 0
8.000000 10.000000 0
9.000000 10.000000 0
10.000000 10.000000 0
11.000000 10.000000 0
12.000000 10.000000 0
13.000000 10.000000 0
14.000000 10.000000 0
15.000000 10.000000 0
16.000000 10.000000 0
17.000000 10.000000 0
18.000000 10.000000 0
19.000000 10.000000 0
20.000000 10.000000 0
21.000000 10.000000 0
22.000000 10.000000 0
23.000000 10.000000 0
24.000000 10.000000 0
25.000000 10.000000 0
0.000000 11.000000 0
1.000000 11.000000 0
2.000000 11.000000 0
3.000000 11.000000 0
4.000000 11.000000 0
5.000000 11.000000 0
6.000000 11.000000 0
7.000000 11.000000 0
8.000000 11.000000 0
9.000000 11.000000 0
10.000000 11.000000 0
11.000000 11.000000 0
12.000000 11.000000 0
13.000000 11.000000 0
14.000000 11.000000 0
15.000000 11.000000 0
16.000000 11.000000 0
17.000000 11.000000 0
18.000000 11.000000 0
19.000000 11.000000 0
20.000000 11.000000 0
21.000000 11.000000 0
22.000000 11.000000 0
23.000000 11.000000 0
24.000000 11.000000 0
25.000000 11.000000 0
0.000000 12.000000 0
1.000000 12.000000 0
2.000000 12.000000 0
3.000000 12.000000 0
4.000000 12.000000 0
5.000000 12.000000 0
6.000000 12.000000 0
7.000000 12.000000 0
8.000000 12.000000 0
9.000000 12.000000 0
10.000000 12.000000 0
11.000000 12.000000 0
12.000000 12.000000 0
13.000000 12.000000 0
14.000000 12.000000 0
15.000000 12.000000 0
16.000000 12.000000 0
17.000000 12.000000 0
18.000000 12.000000 0
19.000000 12.000000 0
20.000000 12.000000 0
21.000000 12.000000 0
22.000000 12.000000 0
23.000000 12.000000 0
24.000000 12.000000 0
25.000000 12.000000 0
0.000000 13.000000 0
1.000000 13.000000 0
2.000000 13.000000 0
3.000000 13.000000 0
4.000000 13.000000 0
5.000000 13.000000 0
6.000000 13.000000 0
7.000000 13.000000 0
8.000000 13.000000 0
9.000000 13.000000 0
10.000000 13.000000 0
11.000000 13.000000 0
12.000000 13.000000 0
13.000000 13.000000 0
14.000000 13.000000 0
15.000000 13.000000 0
16.000000 13.000000 0
17.000000 13.000000 0
18.000000 13.000000 0
19.000000 13.000000 0
20.000000 13.000000 0
21.000000 13.000000 0
22.000000 13.000000 0
23.000000 13.000000 0
24.000000 13.000000 0
25.000000 13.000000 0
0.000000 14.000000 0
1.000000 14.000000 0
2.000000 14.000000 0
3.000000 14.000000 0
4.000000 14.000000 0
5.000000 14.000000 0
6.000000 14.000000 0
7.000000 14.000000 0
8.000000 14.000000 0
9.000000 14.000000 0
10.000000 14.000000 0
11.000000 14.000000 0
12.000000 14.000000 0
13.000000 14.000000 0
14.000000 14.000000 0
15.000000 14.000000 0
16.000000 14.000000 0
17.000000 14.000000 0
18.000000 14.000000 0
19.000000 14.000000 0
20.000000 14.000000 0
21.000000 14.000000 0
22.000000 14.000000 0
23.000000 14.000000 0
24.000000 14.000000 0
25.000000 14.000000 0
0.000000 15.000000 0
1.000000 15.000000 0
2.000000 15.000000 0
3.000000 15.000000 0
4.000000 15.000000 0
5.000000 15.000000 0
6.000000 15.000000 0
7.000000 15.000000 0
8.000000 15.000000 0
9.000000 15.000000 0
10.000000 15.000000 0
11.000000 15.000000 0
12.000000 15.000000 0
13.000000 15.000000 0
14.000000 15.000000 0
15.000000 15.000000 0
16.000000 15.000000 0
17.000000 15.000000 0
18.000000 15.000000 0
19.000000 15.000000 0
20.000000 15.000000 0
21.000000 15.000000 0
22.000000 15.000000 0
23.000000 15.000000 0
24.000000 15.000000 0
25.000000 15.000000 0
0.000000 16.000000 0
1.000000 16.000000 0
2.000000 16.000000 0
3.000000 16.000000 0
4.000000 16.000000 0
5.000000 16.000000 0
6.000000 16.000000 0
7.000000 16.000000 0
8.000000 16.000000 0
9.000000 16.000000 0
10.000000 16.000000 0
11.000000 16.000000 0
12.000000 16.000000 0
13.000000 16.000000 0
14.000000 16.000000 0
15.000000 16.000000 0
16.000000 16.000000 0
17.000000 16.000000 0
18.000000 16.000000 0
19.000000 16.000000 0
20.000000 16.000000 0
21.000000 16.000000 0
22.000000 16.000000 0
23.000000 16.000000 0
24.000000 16.000000 0
25.000000 16.000000 0
0.000000 17.000000 0
1.000000 17.000000 0
2.000000 17.000000 0
3.000000 17.000000 0
4.000000 17.000000 0
5.000000 17.000000 0
6.000000 17.000000 0
7.000000 17.000000 0
8.000000 17.000000 0
9.000000 17.000000 0
10.000000 17.000000 0
11.000000 17.000000 0
12.000000 17.000000 0
13.000000 17.000000 0
14.000000 17.000000 0
15.000000 17.000000 0
16.000000 17.000000 0
17.000000 17.000000 0
18.000000 17.000000 0
19.000000 17.000000 0
20.000000 17.000000 0
21.000000 17.000000 0
22.000000 17.000000 0
23.000000 17.000000 0
24.000000 17.000000 0
25.000000 17.000000 0
0.000000 18.000000 0
1.000000 18.000000 0
2.000000 18.000000 0
3.000000 18.000000 0
4.000000 18.000000 0
5.000000 18.000000 0
6.000000 18.000000 0
7.000000 18.000000 0
8.000000 18.000000 0
9.000000 18.000000 0
10.000000 18.000000 0
11.000000 18.000000 0
12.000000 18.000000 0
13.000000 18.000000 0
14.000000 18.000000 0
15.000000 18.000000 0
16.000000 18.000000 0
17.000000 18.000000 0
18.000000 18.000000 0
19.000000 18.000000 0
20.000000 18.000000 0
21.000000 18.000000 0
22.000000 18.000000 0
23.000000 18.000000 0
24.000000 18.000000 0
25.000000 18.000000 0
0.000000 19.000000 0
1.000000 19.000000 0
2.000000 19.000000 0
3.000000 19.000000 0
4.000000 19.000000 0
5.000000 19.000000 0
6.000000 19.000000 0
7.000000 19.000000 0
8.000000 19.000000 0
9.000000 19.000000 0
10.000000 19.000000 0
11.000000 19.000000 0
12.000000 19.000000 0
13.000000 19.000000 0
14.000000 19.000000 0
15.000000 19.000000 0
16.000000 19.000000 0
17.000000 19.000000 0
18.000000 19.000000 0
19.000000 19.000000 0
20.000000 19.000000 0
21.000000 19.000000 0
22.000000 19.000000 0
23.000000 19.000000 0
24.000000 19.000000 0
25.000000 19.000000 0
0.000000 20.000000 0
1.000000 20.000000 0
2.000000 20.000000 0
3.000000 20.000000 0
4.000000 20.000000 0
5.000000 20.000000 0
6.000000 20.000000 0
7.000000 20.000000 0
8.000000 20.000000 0
9.000000 20.000000 0
10.000000 20.000000 0
11.000000 20.000000 0
12.000000 20.000000 0
13.000000 20.000000 0
14.000000 20.000000 0
15.000000 20.000000 0
16.000000 20.000000 0
17.000000 20.000000 0
18.000000 20.000000 0
19.000000 20.000000 0
20.000000 20.000000 0
21.000000 20.000000 0
22.000000 20.000000 0
23.000000 20.000000 0
24.000000 20.000000 0
25.000000 20.000000 0
0.000000 21.000000 0
1.000000 21.000000 0
2.000000 21.000000 0
3.000000 21.000000 0
4.000000 21.000000 0
5.000000 21.000000 0
6.000000 21.000000 0
7.000000 21.000000 0
8.000000 21.000000 0
9.000000 21.000000 0
10.000000 21.000000 0
11.000000 21.000000 0
12.000000 21.000000 0
13.000000 21.000000 0
14.000000 21.000000 0
15.000000 21.000000 0
16.000000 21.000000 0
17.000000 21.000000 0
18.000000 21.000000 0
19.000000 21.000000 0
20.000000 21.000000 0
21.000000 21.000000 0
22.000000 21.000000 0
23.000000 21.000000 0
24.000000 21.000000 0
25.000000 21.000000 0
0.000000 22.000000 0
1.000000 22.000000 0
2.000000 22.000000 0
3.000000 22.000000 0
4.000000 22.000000 0
5.000000 22.000000 0
6.000000 22.000000 0
7.000000 22.000000 0
8.000000 22.000000 0
9.000000 22.000000 0
10.000000 22.000000 0
11.000000 22.000000 0
12.000000 22.000000 0
13.000000 22.000000 0
14.000000 22.000000 0
15.000000 22.000000 0
16.000000 22.000000 0
17.000000 22.000000 0
18.000000 22.000000 0
19.000000 22.000000 0
20.000000 22.000000 0
21.000000 22.000000 0
22.000000 22.000000 0
23.000000 22.000000 0
24.000000 22.000000 0
25.000000 22.000000 0
0.000000 23.000000 0
1.000000 23.000000 0
2.000000 23.000000 0
3.000000 23.000000 0
4.000000 23.000000 0
5.000000 23.000000 0
6.000000 23.000000 0
7.000000 23.000000 0
8.000000 23.000000 0
9.000000 23.000000 0
10.000000 23.000000 0
11.000000 23.000000 0
12.000000 23.000000 0
13.000000 23.000000 0
14.000000 23.000000 0
15.000000 23.000000 0
16.000000 23.000000 0
17.000000 23.000000 0
18.000000 23.000000 0
19.000000 23.000000 0
20.000000 23.000000 0
21.000000 23.000000 0
22.000000 23.000000 0
23.000000 23.000000 0
24.000000 23.000000 0
25.000000 23.000000 0
0.000000 24.000000 0
1.000000 24.000000 0
2.000000 24.000000 0
3.000000 24.000000 0
4.000000 24.000000 0
5.000000 24.000000 0
6.000000 24.000000 0
7.000000 24.000000 0
8.000000 24.000000 0
9.000000 24.000000 0
10.000000 24.000000 0
11.000000 24.000000 0
12.000000 24.000000 0
13.000000 24.000000 0
14.000000 24.000000 0
15.000000 24.000000 0
16.000000 24.000000 0
17.000000 24.000000 0
18.000000 24.000000 0
19.000000 24.000000 0
20.000000 24.000000 0
21.000000 24.000000 0
22.000000 24.000000 0
23.000000 24.000000 0
24.000000 24.000000 0
25.000000 24.000000 0
0.000000 25.000000 0
1.000000 25.000000 0
2.000000 25.000000 0
3.000000 25.000000 0
4.000000 25.000000 0
5.000000 25.000000 0
6.000000 25.000000 0
7.000000 25.000000 0
8.000000 25.000000 0
9.000000 25.000000 0
10.000000 25.000000 0
11.000000 25.000000 0
12.000000 25.000000 0
13.000000 25.000000 0
14.000000 25.000000 0
15.000000 25.000000 0
16.000000 25.000000 0
17.000000 25.000000 0
18.000000 25.000000 0
19.000000 25.000000 0
20.000000 25.000000 0
21.000000 25.000000 0
22.000000 25.000000 0
23.000000 25.000000 0
24.000000 25.000000 0
25.000000 25.000000 0
POINT_DATA 676 

VECTORS velocity float
0.000000 0.000000 0
0.000834 0.000000 0
-0.000394 0.000000 0
-0.000867 0.000000 0
-0.000739 0.000000 0
-0.000394 0.000000 0
-0.000070 0.000000 0
0.000153 0.000000 0
0.000269 0.000000 0
0.000296 0.000000 0
0.000250 0.000000 0
0.000152 0.000000 0
0.000039 0.000000 0
-0.000054 0.000000 0
-0.000095 0.000000 0
-0.000081 0.000000 0
-0.000035 0.000000 0
0.000008 0.000000 0
0.000029 0.000000 0
0.000026 0.000000 0
0.000015 0.000000 0
0.000004 0.000000 0
-0.000001 0.000000 0
-0.000003 0.000000 0
-0.000002 0.000000 0
0.000000 0.000000 0
0.000000 0.000841 0
-0.004164 0.003740 0
-0.009768 0.001853 0
-0.012952 0.000067 0
-0.013943 -0.000654 0
-0.013741 -0.000584 0
-0.013146 -0.000227 0
-0.012597 0.000100 0
-0.012270 0.000290 0
-0.012216 0.000356 0
-0.012433 0.000353 0
-0.012890 0.000338 0
-0.013539 0.000352 0
-0.014317 0.000409 0
-0.015143 0.000488 0
-0.015927 0.000537 0
-0.016556 0.000485 0
-0.016877 0.000279 0
-0.016700 -0.000100 0
-0.015826 -0.000635 0
-0.014107 -0.001262 0
-0.011513 -0.001865 0
-0.008213 -0.002273 0
-0.004639 -0.002265 0
-0.001537 -0.001575 0
0.000000 -0.000004 0
0.000000 -0.000981 0
-0.005550 0.008364 0
-0.011897 0.007305 0
-0.016387 0.004142 0
-0.018846 0.001692 0
-0.019919 0.000370 0
-0.020269 -0.000163 0
-0.020355 -0.000261 0
-0.020448 -0.000133 0
-0.020698 0.000123 0
-0.021169 0.000456 0
-0.021868 0.000830 0
-0.022760 0.001196 0
-0.023777 0.001490 0
-0.024815 0.001625 0
-0.025740 0.001504 0
-0.026359 0.001045 0
-0.026436 0.000197 0
-0.025709 -0.001045 0
-0.023942 -0.002614 0
-0.020992 -0.004340 0
-0.016886 -0.005915 0
-0.011905 -0.006888 0
-0.006670 -0.006685 0
-0.002209 -0.004646 0
0.000000 -0.000011 0
0.000000 -0.001560 0
-0.004897 0.014206 0
-0.010705 0.014446 0
-0.016018 0.009467 0
-0.019904 0.004582 0
-0.022347 0.001387 0
-0.023733 -0.000160 0
-0.024508 -0.000551 0
-0.025036 -0.000263 0
-0.025556 0.000360 0
-0.026188 0.001093 0
-0.026971 0.001795 0
-0.027882 0.002358 0
-0.028855 0.002683 0
-0.029785 0.002664 0
-0.030517 0.002196 0
-0.030847 0.001183 0
-0.030533 -0.000439 0
-0.029324 -0.002674 0
-0.027010 -0.005407 0
-0.023470 -0.008345 0
-0.018747 -0.010962 0
-0.013139 -0.012490 0
-0.007313 -0.011960 0
-0.002391 -0.008249 0
0.000000 -0.000007 0
0.000000 -0.000511 0
-0.003328 0.020227 0
-0.008713 0.021122 0
-0.014601 0.014388 0
-0.019413 0.007423 0
-0.022694 0.002780 0
-0.024704 0.000555 0
-0.025911 0.000020 0
-0.026722 0.000414 0
-0.027404 0.001199 0
-0.028086 0.002059 0
-0.028817 0.002817 0
-0.029586 0.003356 0
-0.030344 0.003567 0
-0.031001 0.003326 0
-0.031426 0.002499 0
-0.031442 0.000953 0
-0.030846 -0.001411 0
-0.029428 -0.004602 0
-0.027003 -0.008461 0
-0.023445 -0.012578 0
-0.018757 -0.016220 0
-0.013182 -0.018302 0
-0.007351 -0.017422 0
-0.002394 -0.011952 0
0.000000 0.000002 0
0.000000 0.000816 0
-0.001977 0.025081 0
-0.007189 0.026371 0
-0.013135 0.018804 0
-0.018095 0.010740 0
-0.021579 0.005210 0
-0.023827 0.002395 0
-0.025263 0.001474 0
-0.026245 0.001592 0
-0.026995 0.002167 0
-0.027627 0.002873 0
-0.028196 0.003520 0
-0.028715 0.003965 0
-0.029164 0.004062 0
-0.029494 0.003645 0
-0.029616 0.002529 0
-0.029406 0.000537 0
-0.028712 -0.002460 0
-0.027364 -0.006480 0
-0.025189 -0.011341 0
-0.022025 -0.016550 0
-0.017800 -0.021198 0
-0.012658 -0.023882 0
-0.007142 -0.022740 0
-0.002351 -0.015592 0
0.000000 0.000007 0
0.000000 0.001009 0
-0.001403 0.028247 0
-0.006128 0.030715 0
-0.011444 0.023456 0
-0.015987 0.014932 0
-0.019375 0.008560 0
-0.021730 0.004841 0
-0.023318 0.003133 0
-0.024383 0.002656 0
-0.025096 0.002839 0
-0.025570 0.003319 0
-0.025882 0.003851 0
-0.026080 0.004230 0
-0.026187 0.004255 0
-0.026200 0.003711 0
-0.026076 0.002381 0
-0.025743 0.000061 0
-0.025100 -0.003409 0
-0.024014 -0.008076 0
-0.022308 -0.013767 0
-0.019780 -0.019953 0
-0.016267 -0.025586 0
-0.011799 -0.028963 0
-0.006796 -0.027731 0
-0.002286 -0.019093 0
0.000000 0.000005 0
0.000000 0.000187 0
-0.001270 0.030380 0
-0.004962 0.034943 0
-0.009300 0.028414 0
-0.013333 0.019399 0
-0.016628 0.011947 0
-0.019063 0.007093 0
-0.020715 0.004470 0
-0.021740 0.003375 0
-0.022295 0.003196 0
-0.022518 0.003486 0
-0.022520 0.003917 0
-0.022385 0.004226 0
-0.022172 0.004177 0
-0.021910 0.003541 0
-0.021597 0.002087 0
-0.021208 -0.000414 0
-0.020692 -0.004163 0
-0.019944 -0.009260 0
-0.018793 -0.015582 0
-0.016998 -0.022608 0
-0.014323 -0.029194 0
-0.010672 -0.033365 0
-0.006322 -0.032259 0
-0.002192 -0.022391 0
0.000000 0.000001 0
0.000000 -0.000443 0
-0.000989 0.032268 0
-0.003497 0.038907 0
-0.006971 0.032867 0
-0.010622 0.023246 0
-0.013817 0.014767 0
-0.016216 0.008917 0
-0.017786 0.005527 0
-0.018651 0.003912 0
-0.018977 0.003399 0
-0.018927 0.003469 0
-0.018636 0.003744 0
-0.018209 0.003939 0
-0.017726 0.003814 0
-0.017235 0.003140 0
-0.016767 0.001674 0
-0.016344 -0.000847 0
-0.015960 -0.004680 0
-0.015542 -0.009993 0
-0.014929 -0.016738 0
-0.013869 -0.024444 0
-0.012066 -0.031924 0
-0.009309 -0.036969 0
-0.005716 -0.036214 0
-0.002058 -0.025418 0
0.000000 -0.000001 0
0.000000 -0.000276 0
-0.000427 0.033909 0
-0.002034 0.041906 0
-0.004859 0.036225 0
-0.008121 0.026286 0
-0.011058 0.017163 0
-0.013253 0.010592 0
-0.014636 0.006550 0
-0.015307 0.004403 0
-0.015424 0.003477 0
-0.015151 0.003237 0
-0.014629 0.003295 0
-0.013973 0.003359 0
-0.013268 0.003190 0
-0.012579 0.002551 0
-0.011974 0.001178 0
-0.011515 -0.001229 0
-0.011231 -0.004977 0
-0.011084 -0.010309 0
-0.010939 -0.017270 0
-0.010554 -0.025477 0
-0.009596 -0.033754 0
-0.007754 -0.039713 0
-0.004985 -0.039510 0
-0.001881 -0.028108 0
0.000000 -0.000001 0
0.000000 0.000160 0
0.000140 0.034842 0
-0.000829 0.043718 0
-0.003015 0.038689 0
-0.005723 0.028909 0
-0.008233 0.019466 0
-0.010144 0.012287 0
-0.011342 0.007558 0
-0.011867 0.004787 0
-0.011841 0.003362 0
-0.011415 0.002764 0
-0.010728 0.002594 0
-0.009897 0.002551 0
-0.009012 0.002380 0
-0.008161 0.001830 0
-0.007439 0.000617 0
-0.006938 -0.001582 0
-0.006715 -0.005113 0
-0.006765 -0.010290 0
-0.006997 -0.017268 0
-0.007195 -0.025781 0
-0.007014 -0.034717 0
-0.006065 -0.041576 0
-0.004150 -0.042087 0
-0.001661 -0.030403 0
0.000000 0.000000 0
0.000000 0.000230 0
0.000521 0.034921 0
0.000192 0.044710 0
-0.001219 0.040666 0
-0.003242 0.031293 0
-0.005282 0.021628 0
-0.006931 0.013848 0
-0.007988 0.008410 0
-0.008418 0.004996 0
-0.008304 0.003069 0
-0.007780 0.002121 0
-0.006985 0.001741 0
-0.006032 0.001606 0
-0.005020 0.001448 0
-0.004055 0.001004 0
-0.003250 -0.000015 0
-0.002709 -0.001942 0
-0.002512 -0.005152 0
-0.002695 -0.010027 0
-0.003214 -0.016835 0
-0.003895 -0.025452 0
-0.004403 -0.034878 0
-0.004295 -0.042575 0
-0.003235 -0.043913 0
-0.001405 -0.032257 0
0.000000 0.000001 0
0.000000 -0.000002 0
0.000788 0.034408 0
0.001211 0.045161 0
0.000653 0.042132 0
-0.000672 0.033201 0
-0.002260 0.023391 0
-0.003656 0.015116 0
-0.004575 0.009070 0
-0.004925 0.005086 0
-0.004755 0.002697 0
-0.004185 0.001412 0
-0.003338 0.000818 0
-0.002325 0.000584 0
-0.001249 0.000431 0
-0.000228 0.000094 0
0.000623 -0.000712 0
0.001191 -0.002322 0
0.001374 -0.005133 0
0.001101 -0.009589 0
0.000366 -0.016063 0
-0.000708 -0.024587 0
-0.001814 -0.034314 0
-0.002483 -0.042744 0
-0.002261 -0.044976 0
-0.001119 -0.033637 0
0.000000 0.000002 0
0.000000 -0.000132 0
0.001073 0.033509 0
0.002260 0.044953 0
0.002536 0.042809 0
0.001906 0.034404 0
0.000810 0.024660 0
-0.000273 0.016107 0
-0.001014 0.009608 0
-0.001279 0.005137 0
-0.001082 0.002312 0
-0.000513 0.000691 0
0.000328 -0.000126 0
0.001340 -0.000470 0
0.002415 -0.000624 0
0.003435 -0.000852 0
0.004286 -0.001436 0
0.004850 -0.002705 0
0.005011 -0.005070 0
0.004664 -0.009018 0
0.003757 -0.015023 0
0.002359 -0.023271 0
0.000734 -0.033103 0
-0.000649 -0.042128 0
-0.001242 -0.045277 0
-0.000806 -0.034518 0
0.000000 0.000002 0
0.000000 -0.000053 0
0.001389 0.032187 0
0.003261 0.043903 0
0.004351 0.042585 0
0.004477 0.034894 0
0.003976 0.025472 0
0.003298 0.016855 0
0.002788 0.010042 0
0.002620 0.005157 0
0.002827 0.001934 0
0.003363 -0.000008 0
0.004151 -0.001041 0
0.005105 -0.001495 0
0.006117 -0.001652 0
0.007077 -0.001775 0
0.007873 -0.002136 0
0.008388 -0.003057 0
0.008495 -0.004951 0
0.008066 -0.008333 0
0.007007 -0.013757 0
0.005331 -0.021565 0
0.003247 -0.031308 0
0.001205 -0.040769 0
-0.000179 -0.044819 0
-0.000465 -0.034878 0
0.000000 0.000002 0
0.000000 0.000051 0
0.001675 0.030354 0
0.004167 0.042017 0
0.006093 0.041519 0
0.007064 0.034695 0
0.007265 0.025789 0
0.007080 0.017287 0
0.006862 0.010304 0
0.006828 0.005115 0
0.007056 0.001567 0
0.007543 -0.000651 0
0.008246 -0.001878 0
0.009090 -0.002432 0
0.009981 -0.002590 0
0.010817 -0.002610 0
0.011496 -0.002754 0
0.011905 -0.003333 0
0.011914 -0.004748 0
0.011378 -0.007528 0
0.010169 -0.012288 0
0.008245 -0.019512 0
0.005747 -0.028978 0
0.003091 -0.038703 0
0.000934 -0.043606 0
-0.000094 -0.034696 0
0.000000 0.000002 0
0.000000 0.000058 0
0.001894 0.028037 0
0.004979 0.039396 0
0.007762 0.039633 0
0.009637 0.033727 0
0.010616 0.025480 0
0.011012 0.017280 0
0.011173 0.010313 0
0.011336 0.004971 0
0.011619 0.001207 0
0.012061 -0.001216 0
0.012652 -0.002595 0
0.013342 -0.003225 0
0.014055 -0.003374 0
0.014703 -0.003291 0
0.015200 -0.003228 0
0.015444 -0.003478 0
0.015306 -0.004423 0
0.014635 -0.006586 0
0.013273 -0.010624 0
0.011125 -0.017144 0
0.008258 -0.026154 0
0.005026 -0.035956 0
0.002111 -0.041633 0
0.000314 -0.033944 0
0.000000 0.000001 0
0.000000 0.000014 0
0.002051 0.025322 0
0.005693 0.036093 0
0.009311 0.036891 0
0.012098 0.031891 0
0.013911 0.024432 0
0.014980 0.016735 0
0.015613 0.009991 0
0.016047 0.004674 0
0.016426 0.000832 0
0.016831 -0.001698 0
0.017292 -0.003163 0
0.017789 -0.003827 0
0.018269 -0.003946 0
0.018671 -0.003756 0
0.018930 -0.003497 0
0.018957 -0.003439 0
0.018635 -0.003937 0
0.017809 -0.005493 0
0.016302 -0.008778 0
0.013965 -0.014496 0
0.010782 -0.022879 0
0.007027 -0.032555 0
0.003368 -0.038892 0
0.000769 -0.032585 0
0.000000 0.000001 0
0.000000 -0.000018 0
0.002165 0.022288 0
0.006294 0.032149 0
0.010671 0.033289 0
0.014335 0.029151 0
0.017009 0.022585 0
0.018816 0.015575 0
0.019991 0.009263 0
0.020748 0.004167 0
0.021253 0.000411 0
0.021627 -0.002097 0
0.021940 -0.003553 0
0.022204 -0.004193 0
0.022405 -0.004253 0
0.022514 -0.003953 0
0.022494 -0.003515 0
0.022275 -0.003181 0
0.021755 -0.003271 0
0.020783 -0.004252 0
0.019166 -0.006780 0
0.016706 -0.011625 0
0.013295 -0.019216 0
0.009095 -0.028541 0
0.004725 -0.035374 0
0.001286 -0.030575 0
0.000000 0.000001 0
0.000000 -0.000024 0
0.002252 0.019000 0
0.006772 0.027636 0
0.011790 0.028891 0
0.016252 0.025536 0
0.019757 0.019925 0
0.022300 0.013761 0
0.024025 0.008083 0
0.025109 0.003416 0
0.025736 -0.000064 0
0.026063 -0.002396 0
0.026193 -0.003735 0
0.026185 -0.004283 0
0.026068 -0.004254 0
0.025857 -0.003848 0
0.025544 -0.003258 0
0.025086 -0.002698 0
0.024396 -0.002442 0
0.023333 -0.002904 0
0.021693 -0.004701 0
0.019227 -0.008625 0
0.015726 -0.015267 0
0.011208 -0.023983 0
0.006191 -0.031082 0
0.001882 -0.027860 0
0.000000 0.000001 0
0.000000 -0.000018 0
0.002324 0.015517 0
0.007124 0.022660 0
0.012635 0.023813 0
0.017755 0.021144 0
0.021971 0.016518 0
0.025146 0.011329 0
0.027328 0.006476 0
0.028666 0.002449 0
0.029350 -0.000559 0
0.029567 -0.002557 0
0.029461 -0.003666 0
0.029139 -0.004062 0
0.028684 -0.003926 0
0.028156 -0.003433 0
0.027579 -0.002744 0
0.026935 -0.002031 0
0.026157 -0.001517 0
0.025116 -0.001548 0
0.023600 -0.002673 0
0.021312 -0.005657 0
0.017932 -0.011197 0
0.013298 -0.019005 0
0.007759 -0.026047 0
0.002572 -0.024383 0
0.000000 0.000000 0
0.000000 -0.000009 0
0.002380 0.011894 0
0.007335 0.017353 0
0.013144 0.018234 0
0.018688 0.016162 0
0.023364 0.012536 0
0.026924 0.008433 0
0.029347 0.004577 0
0.030758 0.001383 0
0.031357 -0.000977 0
0.031360 -0.002504 0
0.030953 -0.003299 0
0.030296 -0.003506 0
0.029522 -0.003276 0
0.028727 -0.002745 0
0.027964 -0.002036 0
0.027241 -0.001275 0
0.026511 -0.000623 0
0.025660 -0.000346 0
0.024473 -0.000897 0
0.022615 -0.002957 0
0.019649 -0.007253 0
0.015200 -0.013810 0
0.009366 -0.020355 0
0.003359 -0.020100 0
0.000000 0.000000 0
0.000000 -0.000002 0
0.002385 0.008203 0
0.007295 0.011901 0
0.013087 0.012425 0
0.018662 0.010902 0
0.023371 0.008298 0
0.026908 0.005371 0
0.029219 0.002646 0
0.030429 0.000428 0
0.030757 -0.001166 0
0.030443 -0.002148 0
0.029713 -0.002600 0
0.028766 -0.002634 0
0.027761 -0.002361 0
0.026816 -0.001876 0
0.026003 -0.001256 0
0.025348 -0.000576 0
0.024827 0.000065 0
0.024346 0.000491 0
0.023708 0.000372 0
0.022556 -0.000833 0
0.020359 -0.003781 0
0.016513 -0.008722 0
0.010788 -0.014206 0
0.004189 -0.015016 0
0.000000 -0.000000 0
0.000000 0.000001 0
0.002206 0.004614 0
0.006648 0.006641 0
0.011848 0.006840 0
0.016800 0.005873 0
0.020894 0.004309 0
0.023842 0.002599 0
0.025610 0.001052 0
0.026343 -0.000163 0
0.026274 -0.000992 0
0.025653 -0.001457 0
0.024711 -0.001621 0
0.023646 -0.001557 0
0.022611 -0.001329 0
0.021714 -0.000986 0
0.021026 -0.000566 0
0.020583 -0.000097 0
0.020384 0.000379 0
0.020374 0.000773 0
0.020398 0.000893 0
0.020134 0.000392 0
0.019021 -0.001209 0
0.016297 -0.004239 0
0.011367 -0.008031 0
0.004810 -0.009311 0
0.000000 -0.000000 0
0.000000 0.000001 0
0.001535 0.001565 0
0.004621 0.002248 0
0.008169 0.002257 0
0.011450 0.001857 0
0.014040 0.001269 0
0.015765 0.000660 0
0.016642 0.000140 0
0.016814 -0.000241 0
0.016477 -0.000475 0
0.015824 -0.000583 0
0.015022 -0.000593 0
0.014203 -0.000535 0
0.013465 -0.000429 0
0.012874 -0.000290 0
0.012479 -0.000124 0
0.012309 0.000066 0
0.012382 0.000274 0
0.012689 0.000478 0
0.013156 0.000613 0
0.013582 0.000544 0
0.013549 0.000057 0
0.012374 -0.001067 0
0.009311 -0.002719 0
0.004344 -0.003649 0
0.000000 -0.000000 0
0.000000 0.000000 0
0.000007 0.000000 0
0.000009 0.000000 0
0.000000 0.000000 0
-0.000007 0.000000 0
-0.000005 0.000000 0
-0.000000 0.000000 0
0.000001 0.000000 0
-0.000001 0.000000 0
-0.000002 0.000000 0
-0.000001 0.000000 0
0.000000 0.000000 0
-0.000000 0.000000 0
-0.000001 0.000000 0
-0.000001 0.000000 0
-0.000001 0.000000 0
-0.000001 0.000000 0
-0.000000 0.000000 0
-0.000000 0.000000 0
0.000000 0.000000 0
0.000000 0.000000 0
0.000000 0.000000 0
0.000000 0.000000 0
0.000000 0.000000 0
0.000000 0.000000 0
0.000000 0.000000 0

CELL_DATA 625 
SCALARS pressure float 1 
LOOKUP_TABLE default 
8.430970
8.430915
8.431430
8.432150
8.432766
8.433175
8.433395
8.433487
8.433510
8.433513
8.433534
8.433598
8.433715
8.433882
8.434083
8.434303
8.434535
8.434783
8.435051
8.435336
8.435618
8.435869
8.436054
8.436149
8.436149
7.788038
7.788324
7.788834
7.789203
7.789381
7.789442
7.789465
7.789493
7.789543
7.789621
7.789727
7.789855
7.789999
7.790150
7.790303
7.790460
7.790634
7.790835
7.791064
7.791311
7.791551
7.791758
7.791901
7.791960
7.791928
7.145307
7.145707
7.145847
7.145716
7.145547
7.145475
7.145514
7.145628
7.145774
7.145923
7.146059
7.146178
7.146280
7.146370
7.146461
7.146569
7.146710
7.146886
7.147091
7.147311
7.147522
7.147700
7.147817
7.147852
7.147798
6.502566
6.502602
6.502247
6.501855
6.501681
6.501723
6.501879
6.502060
6.502216
6.502332
6.502412
6.502466
6.502507
6.502548
6.502606
6.502693
6.502815
6.502969
6.503148
6.503339
6.503527
6.503687
6.503791
6.503816
6.503754
5.859359
5.858938
5.858408
5.858144
5.858170
5.858327
5.858488
5.858599
5.858659
5.858688
5.858703
5.858714
5.858730
5.858757
5.858804
5.858875
5.858972
5.859094
5.859239
5.859402
5.859572
5.859725
5.859827
5.859851
5.859791
5.215624
5.215107
5.214798
5.214800
5.214924
5.215017
5.215043
5.215025
5.215000
5.214987
5.214990
5.215002
5.215020