# vtk DataFile Version 2.0
generated by CFD-lab course output (written by Tobias Neckel) 
ASCII

DATASET STRUCTURED_GRID
DIMENSIONS  101 21 1 
POINTS 2121 float

0.000000 0.000000 0
0.100000 0.000000 0
0.200000 0.000000 0
0.300000 0.000000 0
0.400000 0.000000 0
0.500000 0.000000 0
0.600000 0.000000 0
0.700000 0.000000 0
0.800000 0.000000 0
0.900000 0.000000 0
1.000000 0.000000 0
1.100000 0.000000 0
1.200000 0.000000 0
1.300000 0.000000 0
1.400000 0.000000 0
1.500000 0.000000 0
1.600000 0.000000 0
1.700000 0.000000 0
1.800000 0.000000 0
1.900000 0.000000 0
2.000000 0.000000 0
2.100000 0.000000 0
2.200000 0.000000 0
2.300000 0.000000 0
2.400000 0.000000 0
2.500000 0.000000 0
2.600000 0.000000 0
2.700000 0.000000 0
2.800000 0.000000 0
2.900000 0.000000 0
3.000000 0.000000 0
3.100000 0.000000 0
3.200000 0.000000 0
3.300000 0.000000 0
3.400000 0.000000 0
3.500000 0.000000 0
3.600000 0.000000 0
3.700000 0.000000 0
3.800000 0.000000 0
3.900000 0.000000 0
4.000000 0.000000 0
4.100000 0.000000 0
4.200000 0.000000 0
4.300000 0.000000 0
4.400000 0.000000 0
4.500000 0.000000 0
4.600000 0.000000 0
4.700000 0.000000 0
4.800000 0.000000 0
4.900000 0.000000 0
5.000000 0.000000 0
5.100000 0.000000 0
5.200000 0.000000 0
5.300000 0.000000 0
5.400000 0.000000 0
5.500000 0.000000 0
5.600000 0.000000 0
5.700000 0.000000 0
5.800000 0.000000 0
5.900000 0.000000 0
6.000000 0.000000 0
6.100000 0.000000 0
6.200000 0.000000 0
6.300000 0.000000 0
6.400000 0.000000 0
6.500000 0.000000 0
6.600000 0.000000 0
6.700000 0.000000 0
6.800000 0.000000 0
6.900000 0.000000 0
7.000000 0.000000 0
7.100000 0.000000 0
7.200000 0.000000 0
7.300000 0.000000 0
7.400000 0.000000 0
7.500000 0.000000 0
7.600000 0.000000 0
7.700000 0.000000 0
7.800000 0.000000 0
7.900000 0.000000 0
8.000000 0.000000 0
8.100000 0.000000 0
8.200000 0.000000 0
8.300000 0.000000 0
8.400000 0.000000 0
8.500000 0.000000 0
8.600000 0.000000 0
8.700000 0.000000 0
8.800000 0.000000 0
8.900000 0.000000 0
9.000000 0.000000 0
9.100000 0.000000 0
9.200000 0.000000 0
9.300000 0.000000 0
9.400000 0.000000 0
9.500000 0.000000 0
9.600000 0.000000 0
9.700000 0.000000 0
9.800000 0.000000 0
9.900000 0.000000 0
10.000000 0.000000 0
0.000000 0.100000 0
0.100000 0.100000 0
0.200000 0.100000 0
0.300000 0.100000 0
0.400000 0.100000 0
0.500000 0.100000 0
0.600000 0.100000 0
0.700000 0.100000 0
0.800000 0.100000 0
0.900000 0.100000 0
1.000000 0.100000 0
1.100000 0.100000 0
1.200000 0.100000 0
1.300000 0.100000 0
1.400000 0.100000 0
1.500000 0.100000 0
1.600000 0.100000 0
1.700000 0.100000 0
1.800000 0.100000 0
1.900000 0.100000 0
2.000000 0.100000 0
2.100000 0.100000 0
2.200000 0.100000 0
2.300000 0.100000 0
2.400000 0.100000 0
2.500000 0.100000 0
2.600000 0.100000 0
2.700000 0.100000 0
2.800000 0.100000 0
2.900000 0.100000 0
3.000000 0.100000 0
3.100000 0.100000 0
3.200000 0.100000 0
3.300000 0.100000 0
3.400000 0.100000 0
3.500000 0.100000 0
3.600000 0.100000 0
3.700000 0.100000 0
3.800000 0.100000 0
3.900000 0.100000 0
4.000000 0.100000 0
4.100000 0.100000 0
4.200000 0.100000 0
4.300000 0.100000 0
4.400000 0.100000 0
4.500000 0.100000 0
4.600000 0.100000 0
4.700000 0.100000 0
4.800000 0.100000 0
4.900000 0.100000 0
5.000000 0.100000 0
5.100000 0.100000 0
5.200000 0.100000 0
5.300000 0.100000 0
5.400000 0.100000 0
5.500000 0.100000 0
5.600000 0.100000 0
5.700000 0.100000 0
5.800000 0.100000 0
5.900000 0.100000 0
6.000000 0.100000 0
6.100000 0.100000 0
6.200000 0.100000 0
6.300000 0.100000 0
6.400000 0.100000 0
6.500000 0.100000 0
6.600000 0.100000 0
6.700000 0.100000 0
6.800000 0.100000 0
6.900000 0.100000 0
7.000000 0.100000 0
7.100000 0.100000 0
7.200000 0.100000 0
7.300000 0.100000 0
7.400000 0.100000 0
7.500000 0.100000 0
7.600000 0.100000 0
7.700000 0.100000 0
7.800000 0.100000 0
7.900000 0.100000 0
8.000000 0.100000 0
8.100000 0.100000 0
8.200000 0.100000 0
8.300000 0.100000 0
8.400000 0.100000 0
8.500000 0.100000 0
8.600000 0.100000 0
8.700000 0.100000 0
8.800000 0.100000 0
8.900000 0.100000 0
9.000000 0.100000 0
9.100000 0.100000 0
9.200000 0.100000 0
9.300000 0.100000 0
9.400000 0.100000 0
9.500000 0.100000 0
9.600000 0.100000 0
9.700000 0.100000 0
9.800000 0.100000 0
9.900000 0.100000 0
10.000000 0.100000 0
0.000000 0.200000 0
0.100000 0.200000 0
0.200000 0.200000 0
0.300000 0.200000 0
0.400000 0.200000 0
0.500000 0.200000 0
0.600000 0.200000 0
0.700000 0.200000 0
0.800000 0.200000 0
0.900000 0.200000 0
1.000000 0.200000 0
1.100000 0.200000 0
1.200000 0.200000 0
1.300000 0.200000 0
1.400000 0.200000 0
1.500000 0.200000 0
1.600000 0.200000 0
1.700000 0.200000 0
1.800000 0.200000 0
1.900000 0.200000 0
2.000000 0.200000 0
2.100000 0.200000 0
2.200000 0.200000 0
2.300000 0.200000 0
2.400000 0.200000 0
2.500000 0.200000 0
2.600000 0.200000 0
2.700000 0.200000 0
2.800000 0.200000 0
2.900000 0.200000 0
3.000000 0.200000 0
3.100000 0.200000 0
3.200000 0.200000 0
3.300000 0.200000 0
3.400000 0.200000 0
3.500000 0.200000 0
3.600000 0.200000 0
3.700000 0.200000 0
3.800000 0.200000 0
3.900000 0.200000 0
4.000000 0.200000 0
4.100000 0.200000 0
4.200000 0.200000 0
4.300000 0.200000 0
4.400000 0.200000 0
4.500000 0.200000 0
4.600000 0.200000 0
4.700000 0.200000 0
4.800000 0.200000 0
4.900000 0.200000 0
5.000000 0.200000 0
5.100000 0.200000 0
5.200000 0.200000 0
5.300000 0.200000 0
5.400000 0.200000 0
5.500000 0.200000 0
5.600000 0.200000 0
5.700000 0.200000 0
5.800000 0.200000 0
5.900000 0.200000 0
6.000000 0.200000 0
6.100000 0.200000 0
6.200000 0.200000 0
6.300000 0.200000 0
6.400000 0.200000 0
6.500000 0.200000 0
6.600000 0.200000 0
6.700000 0.200000 0
6.800000 0.200000 0
6.900000 0.200000 0
7.000000 0.200000 0
7.100000 0.200000 0
7.200000 0.200000 0
7.300000 0.200000 0
7.400000 0.200000 0
7.500000 0.200000 0
7.600000 0.200000 0
7.700000 0.200000 0
7.800000 0.200000 0
7.900000 0.200000 0
8.000000 0.200000 0
8.100000 0.200000 0
8.200000 0.200000 0
8.300000 0.200000 0
8.400000 0.200000 0
8.500000 0.200000 0
8.600000 0.200000 0
8.700000 0.200000 0
8.800000 0.200000 0
8.900000 0.200000 0
9.000000 0.200000 0
9.100000 0.200000 0
9.200000 0.200000 0
9.300000 0.200000 0
9.400000 0.200000 0
9.500000 0.200000 0
9.600000 0.200000 0
9.700000 0.200000 0
9.800000 0.200000 0
9.900000 0.200000 0
10.000000 0.200000 0
0.000000 0.300000 0
0.100000 0.300000 0
0.200000 0.300000 0
0.300000 0.300000 0
0.400000 0.300000 0
0.500000 0.300000 0
0.600000 0.300000 0
0.700000 0.300000 0
0.800000 0.300000 0
0.900000 0.300000 0
1.000000 0.300000 0
1.100000 0.300000 0
1.200000 0.300000 0
1.300000 0.300000 0
1.400000 0.300000 0
1.500000 0.300000 0
1.600000 0.300000 0
1.700000 0.300000 0
1.800000 0.300000 0
1.900000 0.300000 0
2.000000 0.300000 0
2.100000 0.300000 0
2.200000 0.300000 0
2.300000 0.300000 0
2.400000 0.300000 0
2.500000 0.300000 0
2.600000 0.300000 0
2.700000 0.300000 0
2.800000 0.300000 0
2.900000 0.300000 0
3.000000 0.300000 0
3.100000 0.300000 0
3.200000 0.300000 0
3.300000 0.300000 0
3.400000 0.300000 0
3.500000 0.300000 0
3.600000 0.300000 0
3.700000 0.300000 0
3.800000 0.300000 0
3.900000 0.300000 0
4.000000 0.300000 0
4.100000 0.300000 0
4.200000 0.300000 0
4.300000 0.300000 0
4.400000 0.300000 0
4.500000 0.300000 0
4.600000 0.300000 0
4.700000 0.300000 0
4.800000 0.300000 0
4.900000 0.300000 0
5.000000 0.300000 0
5.100000 0.300000 0
5.200000 0.300000 0
5.300000 0.300000 0
5.400000 0.300000 0
5.500000 0.300000 0
5.600000 0.300000 0
5.700000 0.300000 0
5.800000 0.300000 0
5.900000 0.300000 0
6.000000 0.300000 0
6.100000 0.300000 0
6.200000 0.300000 0
6.300000 0.300000 0
6.400000 0.300000 0
6.500000 0.300000 0
6.600000 0.300000 0
6.700000 0.300000 0
6.800000 0.300000 0
6.900000 0.300000 0
7.000000 0.300000 0
7.100000 0.300000 0
7.200000 0.300000 0
7.300000 0.300000 0
7.400000 0.300000 0
7.500000 0.300000 0
7.600000 0.300000 0
7.700000 0.300000 0
7.800000 0.300000 0
7.900000 0.300000 0
8.000000 0.300000 0
8.100000 0.300000 0
8.200000 0.300000 0
8.300000 0.300000 0
8.400000 0.300000 0
8.500000 0.300000 0
8.600000 0.300000 0
8.700000 0.300000 0
8.800000 0.300000 0
8.900000 0.300000 0
9.000000 0.300000 0
9.100000 0.300000 0
9.200000 0.300000 0
9.300000 0.300000 0
9.400000 0.300000 0
9.500000 0.300000 0
9.600000 0.300000 0
9.700000 0.300000 0
9.800000 0.300000 0
9.900000 0.300000 0
10.000000 0.300000 0
0.000000 0.400000 0
0.100000 0.400000 0
0.200000 0.400000 0
0.300000 0.400000 0
0.400000 0.400000 0
0.500000 0.400000 0
0.600000 0.400000 0
0.700000 0.400000 0
0.800000 0.400000 0
0.900000 0.400000 0
1.000000 0.400000 0
1.100000 0.400000 0
1.200000 0.400000 0
1.300000 0.400000 0
1.400000 0.400000 0
1.500000 0.400000 0
1.600000 0.400000 0
1.700000 0.400000 0
1.800000 0.400000 0
1.900000 0.400000 0
2.000000 0.400000 0
2.100000 0.400000 0
2.200000 0.400000 0
2.300000 0.400000 0
2.400000 0.400000 0
2.500000 0.400000 0
2.600000 0.400000 0
2.700000 0.400000 0
2.800000 0.400000 0
2.900000 0.400000 0
3.000000 0.400000 0
3.100000 0.400000 0
3.200000 0.400000 0
3.300000 0.400000 0
3.400000 0.400000 0
3.500000 0.400000 0
3.600000 0.400000 0
3.700000 0.400000 0
3.800000 0.400000 0
3.900000 0.400000 0
4.000000 0.400000 0
4.100000 0.400000 0
4.200000 0.400000 0
4.300000 0.400000 0
4.400000 0.400000 0
4.500000 0.400000 0
4.600000 0.400000 0
4.700000 0.400000 0
4.800000 0.400000 0
4.900000 0.400000 0
5.000000 0.400000 0
5.100000 0.400000 0
5.200000 0.400000 0
5.300000 0.400000 0
5.400000 0.400000 0
5.500000 0.400000 0
5.600000 0.400000 0
5.700000 0.400000 0
5.800000 0.400000 0
5.900000 0.400000 0
6.000000 0.400000 0
6.100000 0.400000 0
6.200000 0.400000 0
6.300000 0.400000 0
6.400000 0.400000 0
6.500000 0.400000 0
6.600000 0.400000 0
6.700000 0.400000 0
6.800000 0.400000 0
6.900000 0.400000 0
7.000000 0.400000 0
7.100000 0.400000 0
7.200000 0.400000 0
7.300000 0.400000 0
7.400000 0.400000 0
7.500000 0.400000 0
7.600000 0.400000 0
7.700000 0.400000 0
7.800000 0.400000 0
7.900000 0.400000 0
8.000000 0.400000 0
8.100000 0.400000 0
8.200000 0.400000 0
8.300000 0.400000 0
8.400000 0.400000 0
8.500000 0.400000 0
8.600000 0.400000 0
[...]
POINT_DATA 2121 

VECTORS velocity float
0.500000 0.000000 0
0.000003 0.000000 0
0.000002 0.000000 0
0.000001 0.000000 0
-0.000003 0.000000 0
-0.000021 0.000000 0
-0.000051 0.000000 0
-0.000072 0.000000 0
-0.000127 0.000000 0
-0.000217 0.000000 0
-0.000238 0.000000 0
-0.000265 0.000000 0
-0.000325 0.000000 0
-0.000405 0.000000 0
-0.000497 0.000000 0
-0.000603 0.000000 0
-0.000725 0.000000 0
-0.000863 0.000000 0
-0.001019 0.000000 0
-0.001189 0.000000 0
-0.001367 0.000000 0
-0.001542 0.000000 0
-0.001698 0.000000 0
-0.001807 0.000000 0
-0.001850 0.000000 0
-0.001787 0.000000 0
-0.001641 0.000000 0
-0.001337 0.000000 0
-0.000797 0.000000 0
0.000050 0.000000 0
0.001243 0.000000 0
0.002586 0.000000 0
0.003838 0.000000 0
0.004893 0.000000 0
0.005786 0.000000 0
0.006360 0.000000 0
0.006570 0.000000 0
0.009708 0.000000 0
0.009856 0.000000 0
0.003225 0.000000 0
0.011753 0.000000 0
0.011648 0.000000 0
0.009614 0.000000 0
0.007914 0.000000 0
0.001787 0.000000 0
-0.006422 0.000000 0
-0.014858 0.000000 0
-0.021478 0.000000 0
-0.022758 0.000000 0
-0.019006 0.000000 0
-0.022309 0.000000 0
-0.023493 0.000000 0
-0.023265 0.000000 0
-0.023925 0.000000 0
-0.023053 0.000000 0
-0.014740 0.000000 0
-0.011060 0.000000 0
-0.007360 0.000000 0
-0.001174 0.000000 0
0.004253 0.000000 0
0.007829 0.000000 0
0.025958 0.000000 0
0.039503 0.000000 0
0.041664 0.000000 0
0.034430 0.000000 0
0.018909 0.000000 0
0.004674 0.000000 0
-0.002765 0.000000 0
-0.004636 0.000000 0
-0.003306 0.000000 0
-0.002267 0.000000 0
-0.000150 0.000000 0
0.000366 0.000000 0
0.000073 0.000000 0
-0.000385 0.000000 0
-0.000727 0.000000 0
-0.000632 0.000000 0
-0.000495 0.000000 0
-0.000430 0.000000 0
-0.000410 0.000000 0
-0.000407 0.000000 0
-0.000404 0.000000 0
-0.000393 0.000000 0
-0.000376 0.000000 0
-0.000366 0.000000 0
-0.000370 0.000000 0
-0.000380 0.000000 0
-0.000380 0.000000 0
-0.000365 0.000000 0
-0.000348 0.000000 0
-0.000345 0.000000 0
-0.000359 0.000000 0
-0.000376 0.000000 0
-0.000373 0.000000 0
-0.000347 0.000000 0
-0.000311 0.000000 0
-0.000292 0.000000 0
-0.000298 0.000000 0
-0.000325 0.000000 0
-0.000363 0.000000 0
-0.000365 0.000000 0
1.000000 0.000390 0
0.999816 0.000974 0
0.999535 0.001215 0
0.999267 0.001251 0
0.999110 0.001152 0
0.999177 0.000859 0
0.999605 0.000396 0
1.000541 -0.000209 0
1.002172 -0.001257 0
1.004755 -0.002787 0
1.008497 -0.004031 0
1.013529 -0.005248 0
1.020228 -0.007170 0
1.029087 -0.009737 0
1.040707 -0.012998 0
1.055817 -0.017061 0
1.075290 -0.022023 0
1.100113 -0.027898 0
1.131289 -0.034519 0
1.169611 -0.041411 0
1.215286 -0.047663 0
1.267262 -0.051973 0
1.323022 -0.052791 0
1.377145 -0.049659 0
1.425786 -0.043866 0
1.466581 -0.036563 0
1.499114 -0.028955 0
1.524835 -0.021572 0
1.544079 -0.013091 0
1.554941 -0.001631 0
1.553363 0.014007 0
1.534974 0.031818 0
1.497257 0.049179 0
1.442304 0.065273 0
1.372445 0.079227 0
1.290780 0.087853 0
1.199201 0.095720 0
1.097994 0.137384 0
1.006526 0.138751 0
0.883595 0.100063 0
0.645191 0.122323 0
0.475911 0.146658 0
0.365888 0.154856 0
0.231657 0.142221 0
0.143316 0.057305 0
0.139215 -0.062446 0
0.219767 -0.161960 0
0.373822 -0.223541 0
0.594376 -0.236385 0
0.834867 -0.207869 0
1.046441 -0.194667 0
1.243573 -0.201709 0
1.439700 -0.196699 0
1.620588 -0.190847 0
1.780523 -0.169822 0
1.915696 -0.123019 0
2.018895 -0.076541 0
2.083247 -0.037473 0
2.105490 0.009684 0
2.085895 0.048262 0
2.013014 0.090203 0
1.880112 0.179126 0
1.697263 0.274083 0
1.498501 0.303489 0
1.322454 0.270907 0
1.187685 0.183770 0
1.097115 0.072705 0
1.036366 -0.001817 0
0.993938 -0.029956 0
0.961156 -0.029000 0
0.931703 -0.019325 0
0.904384 -0.007596 0
0.887346 -0.000321 0
0.881933 -0.001210 0
0.883541 -0.004255 0
0.890533 -0.006240 0
0.898327 -0.005917 0
0.903323 -0.004579 0
0.907073 -0.003666 0
0.910693 -0.003223 0
0.914221 -0.002988 0
0.917433 -0.002799 0
0.920237 -0.002560 0
0.922764 -0.002276 0
0.925237 -0.002062 0
0.927728 -0.001998 0
0.930111 -0.002006 0
0.932227 -0.001930 0
0.934062 -0.001717 0
0.935802 -0.001468 0
0.937672 -0.001347 0
0.939678 -0.001397 0
0.941591 -0.001472 0
0.943127 -0.001365 0
0.944191 -0.001016 0
0.944897 -0.000544 0
0.945499 -0.000238 0
0.946186 -0.000131 0
0.946971 -0.000325 0
0.947913 -0.000647 0
0.948516 -0.000729 0
1.000000 0.000189 0
1.000326 0.000472 0
1.000841 0.000553 0
1.001492 0.000429 0
1.002337 0.000093 0
1.003435 -0.000493 0
1.004845 -0.001363 0
1.006713 -0.002566 0
1.009198 -0.004214 0
1.012228 -0.006326 0
1.015985 -0.008775 0
1.021225 -0.011733 0
1.028064 -0.015561 0
1.036845 -0.020482 0
1.048093 -0.026734 0
1.062517 -0.034589 0
1.081021 -0.044302 0
1.104738 -0.056006 0
1.135022 -0.069506 0
1.173237 -0.084006 0
1.220524 -0.097663 0
1.276291 -0.107748 0
1.339537 -0.109896 0
1.399765 -0.102778 0
1.451044 -0.089452 0
1.490878 -0.073345 0
1.521948 -0.058272 0
1.546958 -0.044983 0
1.568436 -0.030126 0
1.585145 -0.009304 0
1.591185 0.019947 0
1.580766 0.056086 0
1.549161 0.092650 0
1.496883 0.124792 0
1.429391 0.151504 0
1.347622 0.173224 0
1.251473 0.192768 0
1.153826 0.192658 0
1.077671 0.214382 0
0.908710 0.361319 0
0.742264 0.407669 0
0.683811 0.279289 0
0.575422 0.244241 0
0.441256 0.222560 0
0.379615 0.092432 0
0.347964 -0.076460 0
0.334472 -0.234615 0
0.348122 -0.374616 0
0.455966 -0.461052 0
0.657722 -0.452070 0
0.907463 -0.408711 0
1.108728 -0.393263 0
1.282962 -0.377018 0
1.441895 -0.340825 0
1.576225 -0.295109 0
1.693659 -0.238373 0
1.790735 -0.167551 0
1.850221 -0.086595 0
1.866881 -0.002647 0
1.846009 0.092478 0
1.772279 0.205785 0
1.658932 0.315753 0
1.552880 0.381614 0
1.464794 0.374812 0
1.387242 0.310820 0
1.323883 0.225342 0
1.249899 0.151324 0
1.173204 0.103181 0
1.114069 0.075214 0
1.071102 0.062239 0
1.037253 0.056777 0
1.013393 0.044362 0
1.001476 0.022455 0
0.992142 0.003809 0
0.980140 -0.008597 0
0.964925 -0.014781 0
0.951996 -0.012786 0
0.946269 -0.008742 0
0.946037 -0.007366 0
0.949205 -0.007144 0
0.953058 -0.006737 0
0.956538 -0.006013 0
0.959630 -0.005329 0
0.962577 -0.004998 0
0.965480 -0.004961 0
0.968246 -0.004871 0
0.970773 -0.004497 0
0.973122 -0.003949 0
0.975493 -0.003573 0
0.978025 -0.003608 0
0.980613 -0.003874 0
0.982986 -0.003917 0
0.984930 -0.003447 0
0.986413 -0.002598 0
0.987650 -0.001769 0
0.988912 -0.001307 0
0.990345 -0.001288 0
0.991820 -0.001471 0
0.993233 -0.001725 0
0.994294 -0.001544 0
0.994728 -0.001201 0
1.000000 0.000068 0
1.000203 0.000138 0
1.000563 0.000050 0
1.001065 -0.000243 0
1.001737 -0.000790 0
1.002622 -0.001648 0
1.003788 -0.002881 0
1.005337 -0.004562 0
1.007380 -0.006773 0
1.009988 -0.009574 0
1.013332 -0.013028 0
1.017735 -0.017327 0
1.023419 -0.022791 0
1.030715 -0.029767 0
1.040072 -0.038671 0
1.052161 -0.049990 0
1.067910 -0.064246 0
1.088619 -0.081901 0
1.116192 -0.103019 0
1.152916 -0.126916 0
1.201874 -0.150721 0
1.262966 -0.170990 0
1.344959 -0.176270 0
1.416890 -0.161172 0
1.468531 -0.134986 0
1.504338 -0.107474 0
1.530961 -0.085042 0
1.551827 -0.068067 0
1.574325 -0.051285 0
1.600360 -0.024388 0
1.618147 0.018379 0
1.616727 0.073835 0
1.590201 0.133055 0
1.536096 0.185036 0
1.466836 0.228481 0
1.389525 0.265765 0
1.307102 0.289510 0
1.217254 0.311182 0
1.083913 0.383862 0
0.955526 0.435464 0
1.007387 0.347218 0
0.986851 0.313497 0
0.769267 0.397407 0
0.657598 0.338024 0
0.614434 0.150594 0
0.569633 -0.017305 0
0.529947 -0.162120 0
0.503829 -0.345038 0
0.495603 -0.545987 0
0.555587 -0.659368 0
0.724056 -0.645674 0
0.932452 -0.577208 0
1.099031 -0.529867 0
1.224801 -0.484111 0
1.338947 -0.421586 0
1.439436 -0.337529 0
1.519708 -0.233104 0
1.565576 -0.113618 0
1.568216 0.013897 0
1.529364 0.142864 0
1.466885 0.277281 0
1.396215 0.398526 0
1.330043 0.468222 0
1.269110 0.469128 0
1.206738 0.411819 0
1.144289 0.321114 0
1.082842 0.223386 0
1.031183 0.134015 0
0.992000 0.072148 0
0.972125 0.047817 0
0.972102 0.038386 0
0.983336 0.028184 0
0.988701 0.020931 0
0.984220 0.020128 0
0.973668 0.022964 0
0.958975 0.021905 0
0.946174 0.012740 0
0.940742 0.001382 0
0.941410 -0.006601 0
0.947191 -0.010243 0
0.952050 -0.010320 0
0.955516 -0.009369 0
0.958454 -0.008598 0
0.961315 -0.008125 0
0.964097 -0.007729 0
0.966745 -0.007290 0
0.969374 -0.006881 0
0.972187 -0.006650 0
0.975243 -0.006619 0
0.978316 -0.006587 0
0.981033 -0.006308 0
0.983196 -0.005712 0
0.984913 -0.004898 0
0.986527 -0.004084 0
0.988295 -0.003514 0
0.990247 -0.003239 0
0.992204 -0.003145 0
0.993909 -0.003019 0
0.995236 -0.002799 0
0.996041 -0.002141 0
0.996417 -0.001584 0
1.000000 -0.000010 0
1.000129 -0.000086 0
1.000367 -0.000308 0
1.000712 -0.000744 0
1.001192 -0.001463 0
1.001828 -0.002543 0
1.002681 -0.004077 0
1.003839 -0.006157 0
1.005409 -0.008864 0
1.007473 -0.012277 0
1.010123 -0.016521 0
1.013515 -0.021820 0
1.017762 -0.028541 0
1.023181 -0.037135 0
1.030049 -0.048180 0
1.038963 -0.062427 0
1.050768 -0.080761 0
1.066727 -0.104289 0
1.089407 -0.133805 0
1.122197 -0.169690 0
1.170874 -0.207715 0
1.237038 -0.250837 0
1.368684 -0.263825 0
1.453010 -0.226355 0
1.494221 -0.176906 0
1.518006 -0.135781 0
1.534823 -0.105767 0
1.543305 -0.088354 0
1.560632 -0.078665 0
1.602751 -0.053133 0
1.643001 0.003573 0
1.663449 0.084026 0
1.654776 0.173276 0
1.596733 0.248151 0
1.502469 0.298069 0
1.399725 0.332953 0
1.305546 0.365033 0
1.212093 0.415842 0
1.119545 0.476105 0
1.096723 0.437841 0
1.103910 0.376340 0
0.901230 0.517405 0
0.710149 0.573491 0
0.638292 0.377390 0
0.564650 0.180394 0
0.528470 0.008025 0
0.558116 -0.168813 0
0.640454 -0.340275 0
0.687077 -0.512812 0
0.686822 -0.680525 0
0.695480 -0.785577 0
0.788732 -0.768238 0
0.933540 -0.669367 0
1.050843 -0.580742 0
1.128312 -0.509745 0
1.192730 -0.419135 0
1.253072 -0.293691 0
1.291056 -0.135102 0
1.293005 0.033565 0
1.257083 0.193810 0
1.199962 0.338935 0
1.151427 0.452596 0
1.125288 0.508720 0
1.116363 0.498119 0
1.109687 0.435642 0
1.096221 0.349240 0
1.060312 0.264431 0
1.008945 0.194024 0
0.960990 0.134273 0
0.939834 0.082140 0
0.946037 0.045568 0
0.957084 0.027764 0
0.965499 0.021573 0
0.971227 0.018843 0
0.976906 0.016649 0
0.983536 0.012714 0
0.987768 0.005450 0
0.985953 -0.003976 0
0.979265 -0.013814 0
0.968407 -0.017783 0
0.960938 -0.015060 0
0.957822 -0.012415 0
0.957776 -0.011126 0
0.959472 -0.010640 0
0.962030 -0.010390 0
0.965006 -0.010148 0
0.968262 -0.009938 0
0.971732 -0.009817 0
0.975226 -0.009701 0
0.978439 -0.009397 0
0.981172 -0.008753 0
0.983428 -0.007796 0
0.985422 -0.006777 0
0.987447 -0.005979 0
0.989604 -0.005488 0
0.991828 -0.005216 0
0.993877 -0.004950 0
0.995520 -0.004503 0
0.996740 -0.003856 0
0.997390 -0.002724 0
0.997720 -0.001942 0
1.000000 -0.000058 0
1.000075 -0.000224 0
1.000198 -0.000531 0
1.000376 -0.001067 0
1.000665 -0.001904 0
1.001020 -0.003135 0
1.001504 -0.004891 0
1.002197 -0.007289 0
1.003243 -0.010406 0
1.004697 -0.014287 0
1.006520 -0.019068 0
1.008805 -0.024966 0
1.011312 -0.032456 0
1.014576 -0.042053 0
1.018351 -0.054453 0
1.023245 -0.070710 0
1.029757 -0.092010 0
1.038659 -0.120539 0
1.052601 -0.158490 0
1.077044 -0.208385 0
1.116418 -0.265564 0
1.188718 -0.368803 0
1.429349 -0.392247 0
1.490814 -0.286713 0
1.482709 -0.199986 0
1.470713 -0.148081 0
1.466355 -0.110349 0
1.444306 -0.093882 0
1.425440 -0.110736 0
1.481021 -0.106764 0
1.553756 -0.042326 0
1.612827 0.062055 0
1.678066 0.199766 0
1.664939 0.337338 0
1.589889 0.425484 0
1.476085 0.462683 0
1.349264 0.477138 0
1.235747 0.497178 0
1.169831 0.499227 0
1.161089 0.451096 0
1.046800 0.542707 0
0.809844 0.707254 0
0.749675 0.660341 0
0.677998 0.483521 0
0.603608 0.260414 0
0.590612 -0.010774 0
0.624165 -0.274107 0
0.687953 -0.474001 0
0.759885 -0.592356 0
0.811377 -0.667772 0
0.821288 -0.747585 0
0.796714 -0.815269 0
0.810145 -0.791979 0
0.892940 -0.678884 0
0.959366 -0.563473 0
0.978036 -0.462289 0
0.971972 -0.331430 0
0.969011 -0.153551 0
0.970936 0.047870 0
0.966851 0.235908 0
0.958291 0.382938 0
0.958398 0.473200 0
0.971264 0.503287 0
0.991750 0.484730 0
1.007574 0.431962 0
1.010597 0.370490 0
1.001834 0.310663 0
0.989640 0.233339 0
0.980767 0.141261 0
0.978429 0.062771 0
0.979743 0.021137 0
0.976340 0.008723 0
0.972708 0.006789 0
0.970219 0.008722 0
0.969220 0.010658 0
0.969452 0.011044 0
0.969554 0.010324 0
0.967421 0.009887 0
0.962319 0.010947 0
0.953814 0.008084 0
0.948960 0.000266 0
0.948403 -0.006206 0
0.950581 -0.010248 0
0.954034 -0.012378 0
0.958010 -0.013262 0
0.962313 -0.013522 0
0.966860 -0.013607 0
0.971387 -0.013612 0
0.975486 -0.013325 0
0.978872 -0.012533 0
0.981588 -0.011297 0
0.983977 -0.009961 0
0.986412 -0.008916 0
0.989088 -0.008266 0
0.991836 -0.007895 0
0.994367 -0.007512 0
0.996389 -0.006836 0
0.997791 -0.005881 0
0.998715 -0.004668 0
0.999152 -0.003120 0
0.999447 -0.002233 0
1.000000 -0.000081 0
1.000038 -0.000280 0
1.000104 -0.000607 0
1.000102 -0.001209 0
1.000295 -0.002106 0
1.000294 -0.003381 0
1.000181 -0.005252 0
1.000371 -0.007893 0
1.001017 -0.011362 0
1.001855 -0.015552 0
1.002730 -0.020627 0
1.004129 -0.026611 0
1.004384 -0.034310 0
1.005688 -0.044172 0
1.005846 -0.056847 0
1.007275 -0.073831 0
1.005519 -0.096174 0
1.010476 -0.127132 0
1.002711 -0.172189 0
1.022051 -0.233508 0
1.028042 -0.319389 0
1.109139 -0.563770 0
1.447549 -0.565925 0
1.341139 -0.279720 0
1.225041 -0.156810 0
1.143747 -0.119433 0
1.072093 -0.079366 0
1.123383 -0.047445 0
0.871773 -0.115386 0
0.936638 -0.181454 0
1.106167 -0.128238 0
1.214298 -0.040289 0
1.437771 0.121159 0
1.502364 0.336323 0
1.520857 0.486919 0
1.490448 0.573574 0
1.417638 0.605367 0
1.322510 0.595270 0
1.241097 0.550759 0
1.153742 0.560868 0
0.974468 0.727582 0
0.874044 0.814527 0
0.840504 0.705333 0
0.796521 0.523454 0
0.783906 0.267778 0
0.790318 -0.012535 0
0.804562 -0.266157 0
0.814185 -0.475997 0
0.816479 -0.636238 0
0.816758 -0.741930 0
0.841559 -0.770916 0
0.863922 -0.757096 0
0.819980 -0.765594 0
0.773196 -0.729963 0
0.779552 -0.594840 0
0.789439 -0.431741 0
0.770174 -0.284666 0
0.739880 -0.134067 0
0.723452 0.035725 0
0.727992 0.206456 0
0.750170 0.347388 0
0.786260 0.439623 0
0.829834 0.475369 0
0.874607 0.461810 0
0.913927 0.416796 0
0.941706 0.354981 0
0.970370 0.285389 0
0.999282 0.215092 0
1.010817 0.145486 0
0.995635 0.083166 0
0.962926 0.047658 0
0.929926 0.034800 0
0.902495 0.027695 0
0.883725 0.022333 0
0.873742 0.017418 0
0.871110 0.012381 0
0.873850 0.007482 0
0.880879 0.003260 0
0.891702 -0.000207 0
0.906475 -0.004423 0
0.919497 -0.009648 0
0.930033 -0.014036 0
0.938730 -0.016757 0
0.946354 -0.018068 0
0.953501 -0.018667 0
0.960357 -0.018997 0
0.966662 -0.019011 0
0.971961 -0.018442 0
0.976056 -0.017186 0
0.979306 -0.015498 0
0.982352 -0.013857 0
0.985630 -0.012619 0
0.989168 -0.011888 0
0.992674 -0.011403 0
0.995573 -0.010766 0
0.997803 -0.009768 0
0.999284 -0.008373 0
1.000263 -0.006828 0
1.000880 -0.005217 0
1.001263 -0.003456 0
1.001523 -0.002522 0
1.000000 -0.000091 0
0.999999 -0.000322 0
1.000084 -0.000592 0
0.999978 -0.001256 0
0.999920 -0.002094 0
0.999865 -0.003018 0
0.999628 -0.004966 0
0.999284 -0.008123 0
0.999083 -0.011887 0
0.999066 -0.015997 0
0.998525 -0.021340 0
0.999486 -0.026617 0
0.998081 -0.034013 0
0.997298 -0.043512 0
0.995513 -0.056037 0
0.992652 -0.070381 0
0.986141 -0.095208 0
0.980677 -0.117729 0
0.962855 -0.170064 0
0.960611 -0.233714 0
0.910923 -0.352651 0
0.998092 -0.788311 0
0.711657 -0.560038 0
0.000850 0.000000 0
0.001300 0.000000 0
0.434123 0.007461 0
0.374983 -0.089990 0
0.413547 0.106433 0
0.204785 0.076003 0
0.253107 -0.341163 0
0.349743 -0.319990 0
0.316835 -0.269554 0
0.915891 -0.088305 0
1.119484 0.254249 0
1.221841 0.437396 0
1.265138 0.565898 0
1.285374 0.645073 0
1.272523 0.673715 0
1.220758 0.667991 0
1.110190 0.717721 0
0.992432 0.822402 0
0.981919 0.841214 0
0.968242 0.737861 0
0.945170 0.540116 0
0.875631 0.266615 0
0.809930 -0.031433 0
0.769650 -0.297976 0
0.770768 -0.485919 0
0.819559 -0.594931 0
0.851591 -0.692854 0
0.821560 -0.794751 0
0.816030 -0.793692 0
0.830574 -0.701255 0
0.770926 -0.638457 0
0.690007 -0.579716 0
0.650327 -0.452911 0
0.633467 -0.281872 0
0.613263 -0.106829 0
0.595902 0.059759 0
0.598816 0.209190 0
0.629772 0.324670 0
0.684755 0.393536 0
0.752495 0.414940 0
0.816817 0.400638 0
0.871269 0.364864 0
0.915948 0.314048 0
0.951656 0.253088 0
0.972761 0.192893 0
0.974372 0.144909 0
0.951183 0.110663 0
0.912397 0.086848 0
0.877663 0.069155 0
0.852358 0.052991 0
0.837468 0.037477 0
0.832269 0.023275 0
0.835078 0.010938 0
0.843953 0.000555 0
0.857092 -0.007964 0
0.872889 -0.014647 0
0.889883 -0.019709 0
0.905822 -0.023292 0
0.919962 -0.025437 0
0.932435 -0.026567 0
0.943527 -0.027149 0
0.953274 -0.027264 0
0.961427 -0.026682 0
0.967907 -0.025209 0
0.973030 -0.023005 0
0.977339 -0.020670 0
0.981631 -0.018828 0
0.986256 -0.017619 0
0.990788 -0.016777 0
0.994654 -0.015960 0
0.997677 -0.014670 0
0.999752 -0.013023 0
1.001159 -0.011222 0
1.002115 -0.009295 0
1.002836 -0.007476 0
1.003317 -0.005668 0
1.003662 -0.003762 0
1.003845 -0.002736 0
1.000000 -0.000075 0
1.000004 -0.000358 0
0.999987 -0.000583 0
0.999956 -0.001042 0
0.999813 -0.001990 0
0.999490 -0.003086 0
0.999571 -0.004668 0
0.998874 -0.007346 0
0.998391 -0.011141 0
0.997156 -0.014990 0
0.996708 -0.021044 0
0.993378 -0.026164 0
0.994594 -0.032119 0
0.989423 -0.041601 0
0.989282 -0.052198 0
0.977799 -0.064456 0
0.976180 -0.084197 0
0.948633 -0.103844 0
0.948214 -0.152120 0
0.877201 -0.181573 0
0.848583 -0.356868 0
0.678177 -0.428713 0
0.000000 -0.001551 0
-0.587486 0.154618 0
-0.494845 0.000000 0
0.000000 0.000000 0
0.003134 -0.063121 0
-0.097161 0.122748 0
0.179699 0.045050 0
-0.065648 -0.326416 0
-0.295934 -0.191969 0
-0.281413 -0.606440 0
-0.032415 -0.681494 0
0.486434 0.030370 0
0.790716 0.341263 0
0.984268 0.510037 0
1.104717 0.597979 0
1.164164 0.659883 0
1.176932 0.713089 0
1.124006 0.789191 0
1.075060 0.855849 0
1.077661 0.838714 0
1.094258 0.742079 0
1.076816 0.616063 0
0.986500 0.403016 0
0.853182 0.093444 0
0.735034 -0.226998 0
0.611233 -0.525909 0
0.580090 -0.717062 0
0.678855 -0.743932 0
0.767956 -0.735357 0
0.748084 -0.766112 0
0.731633 -0.720491 0
0.739289 -0.589397 0
0.694821 -0.474243 0
0.618815 -0.375201 0
0.561548 -0.247602 0
0.536289 -0.096502 0
0.538804 0.050171 0
0.567490 0.172586 0
0.618215 0.261450 0
0.680466 0.316900 0
0.743156 0.343307 0
0.799634 0.343037 0
0.849748 0.317666 0
0.890303 0.274594 0
0.912243 0.228577 0
0.908917 0.192377 0
0.885126 0.167065 0
0.853196 0.145142 0
0.823319 0.121179 0
0.802812 0.094840 0
0.793230 0.067892 0
0.793259 0.042424 0
0.800807 0.019810 0
0.813768 0.000698 0
0.830322 -0.014530 0
0.849024 -0.025674 0
0.868655 -0.032997 0
0.888280 -0.037354 0
0.906934 -0.039726 0
0.923798 -0.040648 0
0.938090 -0.040320 0
0.949491 -0.038906 0
0.958466 -0.036566 0
0.965782 -0.033628 0
0.972425 -0.030614 0
0.978738 -0.027873 0
0.984495 -0.025786 0
0.989707 -0.024414 0
0.994440 -0.023013 0
0.998032 -0.021016 0
1.000574 -0.018777 0
1.002262 -0.016500 0
1.003536 -0.014247 0
1.004417 -0.012131 0
1.005149 -0.010049 0
1.005697 -0.008030 0
1.006067 -0.006043 0
1.006301 -0.003983 0
1.006399 -0.002872 0
1.000000 -0.000090 0
1.000015 -0.000303 0
0.999943 -0.000541 0
0.999974 -0.001079 0
0.999733 -0.001625 0
0.999479 -0.002773 0
0.999048 -0.004347 0
0.998858 -0.006940 0
0.998052 -0.010165 0
0.996534 -0.014311 0
0.995318 -0.017557 0
0.992612 -0.024499 0
0.989795 -0.030055 0
0.987305 -0.038196 0
0.980076 -0.044409 0
0.973428 -0.057274 0
0.959706 -0.066038 0
0.939760 -0.089759 0
0.917210 -0.098628 0
0.846705 -0.134079 0
0.810710 -0.153622 0
0.482181 -0.000352 0
0.372839 0.057513 0
0.000000 0.000000 0
0.000000 0.000000 0
0.000000 0.000000 0
0.000000 0.000000 0
-0.065964 -0.072978 0
0.109211 0.044487 0
-0.188413 0.134468 0
-0.471967 -0.104228 0
-0.460474 -0.533075 0
-0.806301 -0.856154 0
-0.222147 -0.568885 0
0.279207 -0.060441 0
0.687186 0.251895 0
0.910632 0.465174 0
1.003696 0.601497 0
1.034726 0.708146 0
1.037226 0.819590 0
1.066850 0.868745 0
1.139633 0.822014 0
1.183181 0.738703 0
1.159172 0.647871 0
1.113701 0.490247 0
1.025275 0.220031 0
0.911274 -0.056029 0
0.783200 -0.330977 0
0.634984 -0.662556 0
0.543184 -0.880721 0
0.629038 -0.863981 0
0.731653 -0.757370 0
0.719537 -0.692461 0
0.674198 -0.601646 0
0.655149 -0.459243 0
0.632439 -0.319639 0