# vtk DataFile Version 2.0
generated by CFD-lab course output (written by Tobias Neckel) 
ASCII

DATASET STRUCTURED_GRID
DIMENSIONS  101 21 1 
POINTS 2121 float

0.000000 0.000000 0
0.100000 0.000000 0
0.200000 0.000000 0
0.300000 0.000000 0
0.400000 0.000000 0
0.500000 0.000000 0
0.600000 0.000000 0
0.700000 0.000000 0
0.800000 0.000000 0
0.900000 0.000000 0
1.000000 0.000000 0
1.100000 0.000000 0
1.200000 0.000000 0
1.300000 0.000000 0
1.400000 0.000000 0
1.500000 0.000000 0
1.600000 0.000000 0
1.700000 0.000000 0
1.800000 0.000000 0
1.900000 0.000000 0
2.000000 0.000000 0
2.100000 0.000000 0
2.200000 0.000000 0
2.300000 0.000000 0
2.400000 0.000000 0
2.500000 0.000000 0
2.600000 0.000000 0
2.700000 0.000000 0
2.800000 0.000000 0
2.900000 0.000000 0
3.000000 0.000000 0
3.100000 0.000000 0
3.200000 0.000000 0
3.300000 0.000000 0
3.400000 0.000000 0
3.500000 0.000000 0
3.600000 0.000000 0
3.700000 0.000000 0
3.800000 0.000000 0
3.900000 0.000000 0
4.000000 0.000000 0
4.100000 0.000000 0
4.200000 0.000000 0
4.300000 0.000000 0
4.400000 0.000000 0
4.500000 0.000000 0
4.600000 0.000000 0
4.700000 0.000000 0
4.800000 0.000000 0
4.900000 0.000000 0
5.000000 0.000000 0
5.100000 0.000000 0
5.200000 0.000000 0
5.300000 0.000000 0
5.400000 0.000000 0
5.500000 0.000000 0
5.600000 0.000000 0
5.700000 0.000000 0
5.800000 0.000000 0
5.900000 0.000000 0
6.000000 0.000000 0
6.100000 0.000000 0
6.200000 0.000000 0
6.300000 0.000000 0
6.400000 0.000000 0
6.500000 0.000000 0
6.600000 0.000000 0
6.700000 0.000000 0
6.800000 0.000000 0
6.900000 0.000000 0
7.000000 0.000000 0
7.100000 0.000000 0
7.200000 0.000000 0
7.300000 0.000000 0
7.400000 0.000000 0
7.500000 0.000000 0
7.600000 0.000000 0
7.700000 0.000000 0
7.800000 0.000000 0
7.900000 0.000000 0
8.000000 0.000000 0
8.100000 0.000000 0
8.200000 0.000000 0
8.300000 0.000000 0
8.400000 0.000000 0
8.500000 0.000000 0
8.600000 0.000000 0
8.700000 0.000000 0
8.800000 0.000000 0
8.900000 0.000000 0
9.000000 0.000000 0
9.100000 0.000000 0
9.200000 0.000000 0
9.300000 0.000000 0
9.400000 0.000000 0
9.500000 0.000000 0
9.600000 0.000000 0
9.700000 0.000000 0
9.800000 0.000000 0
9.900000 0.000000 0
10.000000 0.000000 0
0.000000 0.100000 0
0.100000 0.100000 0
0.200000 0.100000 0
0.300000 0.100000 0
0.400000 0.100000 0
0.500000 0.100000 0
0.600000 0.100000 0
0.700000 0.100000 0
0.800000 0.100000 0
0.900000 0.100000 0
1.000000 0.100000 0
1.100000 0.100000 0
1.200000 0.100000 0
1.300000 0.100000 0
1.400000 0.100000 0
1.500000 0.100000 0
1.600000 0.100000 0
1.700000 0.100000 0
1.800000 0.100000 0
1.900000 0.100000 0
2.000000 0.100000 0
2.100000 0.100000 0
2.200000 0.100000 0
2.300000 0.100000 0
2.400000 0.100000 0
2.500000 0.100000 0
2.600000 0.100000 0
2.700000 0.100000 0
2.800000 0.100000 0
2.900000 0.100000 0
3.000000 0.100000 0
3.100000 0.100000 0
3.200000 0.100000 0
3.300000 0.100000 0
3.400000 0.100000 0
3.500000 0.100000 0
3.600000 0.100000 0
3.700000 0.100000 0
3.800000 0.100000 0
3.900000 0.100000 0
4.000000 0.100000 0
4.100000 0.100000 0
4.200000 0.100000 0
4.300000 0.100000 0
4.400000 0.100000 0
4.500000 0.100000 0
4.600000 0.100000 0
4.700000 0.100000 0
4.800000 0.100000 0
4.900000 0.100000 0
5.000000 0.100000 0
5.100000 0.100000 0
5.200000 0.100000 0
5.300000 0.100000 0
5.400000 0.100000 0
5.500000 0.100000 0
5.600000 0.100000 0
5.700000 0.100000 0
5.800000 0.100000 0
5.900000 0.100000 0
6.000000 0.100000 0
6.100000 0.100000 0
6.200000 0.100000 0
6.300000 0.100000 0
6.400000 0.100000 0
6.500000 0.100000 0
6.600000 0.100000 0
6.700000 0.100000 0
6.800000 0.100000 0
6.900000 0.100000 0
7.000000 0.100000 0
7.100000 0.100000 0
7.200000 0.100000 0
7.300000 0.100000 0
7.400000 0.100000 0
7.500000 0.100000 0
7.600000 0.100000 0
7.700000 0.100000 0
7.800000 0.100000 0
7.900000 0.100000 0
8.000000 0.100000 0
8.100000 0.100000 0
8.200000 0.100000 0
8.300000 0.100000 0
8.400000 0.100000 0
8.500000 0.100000 0
8.600000 0.100000 0
8.700000 0.100000 0
8.800000 0.100000 0
8.900000 0.100000 0
9.000000 0.100000 0
9.100000 0.100000 0
9.200000 0.100000 0
9.300000 0.100000 0
9.400000 0.100000 0
9.500000 0.100000 0
9.600000 0.100000 0
9.700000 0.100000 0
9.800000 0.100000 0
9.900000 0.100000 0
10.000000 0.100000 0
0.000000 0.200000 0
0.100000 0.200000 0
0.200000 0.200000 0
0.300000 0.200000 0
0.400000 0.200000 0
0.500000 0.200000 0
0.600000 0.200000 0
0.700000 0.200000 0
0.800000 0.200000 0
0.900000 0.200000 0
1.000000 0.200000 0
1.100000 0.200000 0
1.200000 0.200000 0
1.300000 0.200000 0
1.400000 0.200000 0
1.500000 0.200000 0
1.600000 0.200000 0
1.700000 0.200000 0
1.800000 0.200000 0
1.900000 0.200000 0
2.000000 0.200000 0
2.100000 0.200000 0
2.200000 0.200000 0
2.300000 0.200000 0
2.400000 0.200000 0
2.500000 0.200000 0
2.600000 0.200000 0
2.700000 0.200000 0
2.800000 0.200000 0
2.900000 0.200000 0
3.000000 0.200000 0
3.100000 0.200000 0
3.200000 0.200000 0
3.300000 0.200000 0
3.400000 0.200000 0
3.500000 0.200000 0
3.600000 0.200000 0
3.700000 0.200000 0
3.800000 0.200000 0
3.900000 0.200000 0
4.000000 0.200000 0
4.100000 0.200000 0
4.200000 0.200000 0
4.300000 0.200000 0
4.400000 0.200000 0
4.500000 0.200000 0
4.600000 0.200000 0
4.700000 0.200000 0
4.800000 0.200000 0
4.900000 0.200000 0
5.000000 0.200000 0
5.100000 0.200000 0
5.200000 0.200000 0
5.300000 0.200000 0
5.400000 0.200000 0
5.500000 0.200000 0
5.600000 0.200000 0
5.700000 0.200000 0
5.800000 0.200000 0
5.900000 0.200000 0
6.000000 0.200000 0
6.100000 0.200000 0
6.200000 0.200000 0
6.300000 0.200000 0
6.400000 0.200000 0
6.500000 0.200000 0
6.600000 0.200000 0
6.700000 0.200000 0
6.800000 0.200000 0
6.900000 0.200000 0
7.000000 0.200000 0
7.100000 0.200000 0
7.200000 0.200000 0
7.300000 0.200000 0
7.400000 0.200000 0
7.500000 0.200000 0
7.600000 0.200000 0
7.700000 0.200000 0
7.800000 0.200000 0
7.900000 0.200000 0
8.000000 0.200000 0
8.100000 0.200000 0
8.200000 0.200000 0
8.300000 0.200000 0
8.400000 0.200000 0
8.500000 0.200000 0
8.600000 0.200000 0
8.700000 0.200000 0
8.800000 0.200000 0
8.900000 0.200000 0
9.000000 0.200000 0
9.100000 0.200000 0
9.200000 0.200000 0
9.300000 0.200000 0
9.400000 0.200000 0
9.500000 0.200000 0
9.600000 0.200000 0
9.700000 0.200000 0
9.800000 0.200000 0
9.900000 0.200000 0
10.000000 0.200000 0
0.000000 0.300000 0
0.100000 0.300000 0
0.200000 0.300000 0
0.300000 0.300000 0
0.400000 0.300000 0
0.500000 0.300000 0
0.600000 0.300000 0
0.700000 0.300000 0
0.800000 0.300000 0
0.900000 0.300000 0
1.000000 0.300000 0
1.100000 0.300000 0
1.200000 0.300000 0
1.300000 0.300000 0
1.400000 0.300000 0
1.500000 0.300000 0
1.600000 0.300000 0
1.700000 0.300000 0
1.800000 0.300000 0
1.900000 0.300000 0
2.000000 0.300000 0
2.100000 0.300000 0
2.200000 0.300000 0
2.300000 0.300000 0
2.400000 0.300000 0
2.500000 0.300000 0
2.600000 0.300000 0
2.700000 0.300000 0
2.800000 0.300000 0
2.900000 0.300000 0
3.000000 0.300000 0
3.100000 0.300000 0
3.200000 0.300000 0
3.300000 0.300000 0
3.400000 0.300000 0
3.500000 0.300000 0
3.600000 0.300000 0
3.700000 0.300000 0
3.800000 0.300000 0
3.900000 0.300000 0
4.000000 0.300000 0
4.100000 0.300000 0
4.200000 0.300000 0
4.300000 0.300000 0
4.400000 0.300000 0
4.500000 0.300000 0
4.600000 0.300000 0
4.700000 0.300000 0
4.800000 0.300000 0
4.900000 0.300000 0
5.000000 0.300000 0
5.100000 0.300000 0
5.200000 0.300000 0
5.300000 0.300000 0
5.400000 0.300000 0
5.500000 0.300000 0
5.600000 0.300000 0
5.700000 0.300000 0
5.800000 0.300000 0
5.900000 0.300000 0
6.000000 0.300000 0
6.100000 0.300000 0
6.200000 0.300000 0
6.300000 0.300000 0
6.400000 0.300000 0
6.500000 0.300000 0
6.600000 0.300000 0
6.700000 0.300000 0
6.800000 0.300000 0
6.900000 0.300000 0
7.000000 0.300000 0
7.100000 0.300000 0
7.200000 0.300000 0
7.300000 0.300000 0
7.400000 0.300000 0
7.500000 0.300000 0
7.600000 0.300000 0
7.700000 0.300000 0
7.800000 0.300000 0
7.900000 0.300000 0
8.000000 0.300000 0
8.100000 0.300000 0
8.200000 0.300000 0
8.300000 0.300000 0
8.400000 0.300000 0
8.500000 0.300000 0
8.600000 0.300000 0
8.700000 0.300000 0
8.800000 0.300000 0
8.900000 0.300000 0
9.000000 0.300000 0
9.100000 0.300000 0
9.200000 0.300000 0
9.300000 0.300000 0
9.400000 0.300000 0
9.500000 0.300000 0
9.600000 0.300000 0
9.700000 0.300000 0
9.800000 0.300000 0
9.900000 0.300000 0
10.000000 0.300000 0
0.000000 0.400000 0
0.100000 0.400000 0
0.200000 0.400000 0
0.300000 0.400000 0
0.400000 0.400000 0
0.500000 0.400000 0
0.600000 0.400000 0
0.700000 0.400000 0
0.800000 0.400000 0
0.900000 0.400000 0
1.000000 0.400000 0
1.100000 0.400000 0
1.200000 0.400000 0
1.300000 0.400000 0
1.400000 0.400000 0
1.500000 0.400000 0
1.600000 0.400000 0
1.700000 0.400000 0
1.800000 0.400000 0
1.900000 0.400000 0
2.000000 0.400000 0
2.100000 0.400000 0
2.200000 0.400000 0
2.300000 0.400000 0
2.400000 0.400000 0
2.500000 0.400000 0
2.600000 0.400000 0
2.700000 0.400000 0
2.800000 0.400000 0
2.900000 0.400000 0
3.000000 0.400000 0
3.100000 0.400000 0
3.200000 0.400000 0
3.300000 0.400000 0
3.400000 0.400000 0
3.500000 0.400000 0
3.600000 0.400000 0
3.700000 0.400000 0
3.800000 0.400000 0
3.900000 0.400000 0
4.000000 0.400000 0
4.100000 0.400000 0
4.200000 0.400000 0
4.300000 0.400000 0
4.400000 0.400000 0
4.500000 0.400000 0
4.600000 0.400000 0
4.700000 0.400000 0
4.800000 0.400000 0
4.900000 0.400000 0
5.000000 0.400000 0
5.100000 0.400000 0
5.200000 0.400000 0
5.300000 0.400000 0
5.400000 0.400000 0
5.500000 0.400000 0
5.600000 0.400000 0
5.700000 0.400000 0
5.800000 0.400000 0
5.900000 0.400000 0
6.000000 0.400000 0
6.100000 0.400000 0
6.200000 0.400000 0
6.300000 0.400000 0
6.400000 0.400000 0
6.500000 0.400000 0
6.600000 0.400000 0
6.700000 0.400000 0
6.800000 0.400000 0
6.900000 0.400000 0
7.000000 0.400000 0
7.100000 0.400000 0
7.200000 0.400000 0
7.300000 0.400000 0
7.400000 0.400000 0
7.500000 0.400000 0
7.600000 0.400000 0
7.700000 0.400000 0
7.800000 0.400000 0
7.900000 0.400000 0
8.000000 0.400000 0
8.100000 0.400000 0
8.200000 0.400000 0
8.300000 0.400000 0
8.400000 0.400000 0
8.500000 0.400000 0
8.600000 0.400000 0
[...]
POINT_DATA 2121 

VECTORS velocity float
0.500000 0.000000 0
-0.000001 0.000000 0
-0.000000 0.000000 0
0.000003 0.000000 0
0.000018 0.000000 0
0.000035 0.000000 0
0.000057 0.000000 0
0.000087 0.000000 0
0.000127 0.000000 0
0.000175 0.000000 0
0.000230 0.000000 0
0.000294 0.000000 0
0.000366 0.000000 0
0.000449 0.000000 0
0.000544 0.000000 0
0.000652 0.000000 0
0.000773 0.000000 0
0.000910 0.000000 0
0.001066 0.000000 0
0.001244 0.000000 0
0.001448 0.000000 0
0.001674 0.000000 0
0.001907 0.000000 0
0.002173 0.000000 0
0.002448 0.000000 0
0.002664 0.000000 0
0.002716 0.000000 0
0.002621 0.000000 0
0.002446 0.000000 0
0.002154 0.000000 0
0.001600 0.000000 0
0.000592 0.000000 0
-0.001108 0.000000 0
-0.003759 0.000000 0
-0.007238 0.000000 0
-0.011887 0.000000 0
-0.015861 0.000000 0
-0.019078 0.000000 0
-0.015641 0.000000 0
-0.006836 0.000000 0
0.001818 0.000000 0
0.008013 0.000000 0
0.011158 0.000000 0
0.012667 0.000000 0
0.012986 0.000000 0
0.013610 0.000000 0
0.018398 0.000000 0
0.011989 0.000000 0
-0.008365 0.000000 0
0.008838 0.000000 0
0.021407 0.000000 0
0.017769 0.000000 0
0.004753 0.000000 0
-0.004757 0.000000 0
-0.010649 0.000000 0
-0.013553 0.000000 0
-0.014148 0.000000 0
-0.013547 0.000000 0
-0.014048 0.000000 0
-0.014435 0.000000 0
-0.014197 0.000000 0
-0.013376 0.000000 0
-0.010985 0.000000 0
-0.006372 0.000000 0
0.000633 0.000000 0
0.009014 0.000000 0
0.013992 0.000000 0
0.011172 0.000000 0
0.005321 0.000000 0
0.023330 0.000000 0
0.024055 0.000000 0
0.010025 0.000000 0
0.000238 0.000000 0
-0.003756 0.000000 0
-0.004901 0.000000 0
-0.005069 0.000000 0
-0.005504 0.000000 0
-0.006243 0.000000 0
-0.006996 0.000000 0
-0.007304 0.000000 0
-0.006859 0.000000 0
-0.005846 0.000000 0
-0.004725 0.000000 0
-0.003396 0.000000 0
-0.001098 0.000000 0
0.002131 0.000000 0
0.005806 0.000000 0
0.008366 0.000000 0
0.006244 0.000000 0
0.004656 0.000000 0
0.000195 0.000000 0
-0.005955 0.000000 0
-0.008989 0.000000 0
-0.009564 0.000000 0
-0.008367 0.000000 0
-0.006032 0.000000 0
-0.003241 0.000000 0
-0.000244 0.000000 0
0.002685 0.000000 0
0.004536 0.000000 0
0.005357 0.000000 0
1.000000 0.000233 0
1.000221 0.000393 0
1.000814 0.000108 0
1.001874 -0.000440 0
1.003490 -0.001050 0
1.005708 -0.001671 0
1.008609 -0.002430 0
1.012301 -0.003320 0
1.016924 -0.004380 0
1.022675 -0.005676 0
1.029811 -0.007287 0
1.038671 -0.009303 0
1.049689 -0.011826 0
1.063411 -0.014973 0
1.080516 -0.018871 0
1.101819 -0.023626 0
1.128254 -0.029285 0
1.160801 -0.035742 0
1.200332 -0.042606 0
1.247261 -0.049015 0
1.300959 -0.053443 0
1.358722 -0.053817 0
1.415658 -0.047718 0
1.462624 -0.033857 0
1.489952 -0.014530 0
1.494946 0.006212 0
1.478160 0.025234 0
1.444253 0.041231 0
1.396125 0.054276 0
1.336297 0.064055 0
1.268008 0.069736 0
1.195663 0.070221 0
1.124456 0.064068 0
1.060129 0.048290 0
1.013849 0.018581 0
1.001736 -0.029159 0
1.056068 -0.087216 0
1.172456 -0.139246 0
1.350580 -0.150744 0
1.510441 -0.106315 0
1.594378 -0.038720 0
1.603905 0.021806 0
1.557608 0.064024 0
1.477072 0.089553 0
1.379332 0.103109 0
1.274375 0.119461 0
1.168105 0.146274 0
1.072042 0.086719 0
0.982418 -0.015004 0
0.825962 0.041991 0
0.663971 0.157903 0
0.537853 0.154024 0
0.485872 0.059676 0
0.511219 -0.036014 0
0.589988 -0.091756 0
0.698553 -0.117291 0
0.821109 -0.121632 0
0.949767 -0.117395 0
1.064054 -0.113372 0
1.170324 -0.107920 0
1.268269 -0.099220 0
1.353897 -0.085886 0
1.422074 -0.064518 0
1.466705 -0.032122 0
1.479033 0.012946 0
1.449880 0.062599 0
1.380116 0.087437 0
1.276596 0.060500 0
1.127235 0.048838 0
0.976138 0.108438 0
0.878945 0.130437 0
0.848859 0.063630 0
0.882120 -0.006251 0
0.947370 -0.041116 0
1.014041 -0.052317 0
1.070102 -0.051614 0
1.117739 -0.049174 0
1.159582 -0.047706 0
1.198752 -0.046694 0
1.236756 -0.044213 0
1.271482 -0.038519 0
1.298407 -0.030250 0
1.316670 -0.021230 0
1.328750 -0.010110 0
1.331430 0.006971 0
1.313989 0.030259 0
1.266828 0.055098 0
1.194297 0.068729 0
1.142614 0.061428 0
1.118515 0.040155 0
1.089873 0.002795 0
1.105233 -0.044970 0
1.172975 -0.075463 0
1.252640 -0.083167 0
1.334024 -0.076289 0
1.402410 -0.059216 0
1.452534 -0.038175 0
1.484872 -0.016687 0
1.500322 0.002720 0
1.499583 0.010279 0
1.494696 0.009893 0
1.000000 -0.000241 0
1.000807 -0.000843 0
1.002207 -0.001670 0
1.004125 -0.002693 0
1.006516 -0.003850 0
1.009521 -0.005134 0
1.013171 -0.006606 0
1.017546 -0.008328 0
1.022776 -0.010386 0
1.029036 -0.012897 0
1.036556 -0.016007 0
1.045634 -0.019887 0
1.056661 -0.024748 0
1.070149 -0.030835 0
1.086756 -0.038416 0
1.107317 -0.047744 0
1.132855 -0.058987 0
1.164597 -0.072084 0
1.203934 -0.086463 0
1.252186 -0.100629 0
1.310083 -0.111462 0
1.375517 -0.114697 0
1.446293 -0.103900 0
1.502458 -0.074292 0
1.534952 -0.032318 0
1.542123 0.011797 0
1.525717 0.050699 0
1.488794 0.082042 0
1.437129 0.107961 0
1.373440 0.128123 0
1.300807 0.140640 0
1.222379 0.143558 0
1.142729 0.135539 0
1.064824 0.110609 0
0.991480 0.058395 0
0.935462 -0.042215 0
0.964026 -0.170718 0
1.078200 -0.294512 0
1.286141 -0.337984 0
1.512838 -0.243797 0
1.634481 -0.093463 0
1.666594 0.036772 0
1.626824 0.126836 0
1.545881 0.178280 0
1.448138 0.202702 0
1.338750 0.211234 0
1.236945 0.202342 0
1.153909 0.185696 0
0.961032 0.246089 0
0.705000 0.318457 0
0.576078 0.288119 0
0.557057 0.178109 0
0.609621 0.026643 0
0.689786 -0.104108 0
0.762922 -0.187329 0
0.829158 -0.231118 0
0.905390 -0.251211 0
0.990920 -0.242945 0
1.078250 -0.220559 0
1.162540 -0.204218 0
1.239965 -0.183575 0
1.305923 -0.153809 0
1.356001 -0.112813 0
1.386430 -0.056964 0
1.393354 0.016819 0
1.374603 0.098911 0
1.323695 0.173279 0
1.217706 0.252876 0
1.045803 0.300453 0
0.911115 0.248285 0
0.887385 0.127275 0
0.925161 -0.003178 0
0.987034 -0.098514 0
1.059255 -0.131923 0
1.120887 -0.122734 0
1.163835 -0.103700 0
1.189214 -0.089481 0
1.202096 -0.081014 0
1.208764 -0.077175 0
1.216363 -0.072730 0
1.225027 -0.061650 0
1.224628 -0.045188 0
1.215148 -0.030343 0
1.211329 -0.014759 0
1.214009 0.014762 0
1.202540 0.064602 0
1.183523 0.119692 0
1.160010 0.124215 0
1.038492 0.075783 0
0.901573 0.052742 0
0.842394 0.013284 0
0.874036 -0.083101 0
0.974657 -0.147406 0
1.086248 -0.161048 0
1.168985 -0.149769 0
1.232741 -0.118508 0
1.279956 -0.082461 0
1.316547 -0.047786 0
1.341297 -0.014709 0
1.355193 0.005627 0
1.357593 0.011922 0
1.000000 -0.000588 0
1.000603 -0.001831 0
1.001781 -0.003216 0
1.003468 -0.004755 0
1.005651 -0.006452 0
1.008374 -0.008332 0
1.011675 -0.010459 0
1.015617 -0.012930 0
1.020302 -0.015875 0
1.025874 -0.019460 0
1.032523 -0.023889 0
1.040500 -0.029413 0
1.050138 -0.036345 0
1.061887 -0.045072 0
1.076373 -0.056042 0
1.094448 -0.069729 0
1.117238 -0.086569 0
1.146277 -0.106823 0
1.183685 -0.130196 0
1.232449 -0.155165 0
1.295719 -0.176774 0
1.373047 -0.190027 0
1.471430 -0.174659 0
1.544504 -0.122515 0
1.583406 -0.054195 0
1.590919 0.015449 0
1.572075 0.078567 0
1.529948 0.129821 0
1.470155 0.169630 0
1.398291 0.200379 0
1.314393 0.220798 0
1.227476 0.228299 0
1.145485 0.221622 0
1.067820 0.199538 0
0.896505 0.147944 0
0.768221 -0.001705 0
0.714567 -0.229954 0
0.734783 -0.461362 0
0.964496 -0.585382 0
1.302806 -0.454654 0
1.491375 -0.192475 0
1.602722 0.029464 0
1.623957 0.184739 0
1.566184 0.268243 0
1.465429 0.310243 0
1.353661 0.330657 0
1.246761 0.331119 0
1.126633 0.362635 0
0.973663 0.433909 0
0.885298 0.426948 0
0.855445 0.305850 0
0.868560 0.120483 0
0.909613 -0.073052 0
0.974344 -0.189314 0
1.027061 -0.231129 0
1.067866 -0.259760 0
1.097145 -0.283395 0
1.114043 -0.290257 0
1.144778 -0.284995 0
1.186266 -0.269637 0
1.228445 -0.242606 0
1.265125 -0.201925 0
1.291635 -0.145028 0
1.305277 -0.069477 0
1.304652 0.024770 0
1.288399 0.132255 0
1.250706 0.244332 0
1.195563 0.338388 0
1.166811 0.355426 0
1.144565 0.266855 0
1.115201 0.116389 0
1.114797 -0.036020 0
1.134949 -0.140346 0
1.169491 -0.174970 0
1.209006 -0.156897 0
1.241979 -0.119941 0
1.261255 -0.087437 0
1.262010 -0.067256 0
1.237247 -0.060961 0
1.204109 -0.060476 0
1.184572 -0.046784 0
1.165498 -0.020370 0
1.126718 -0.007931 0
1.074465 -0.008971 0
1.043682 0.015762 0
1.049747 0.060746 0
1.045430 0.097628 0
0.993324 0.213762 0
0.889372 0.319867 0
0.824427 0.236254 0
0.835326 0.030333 0
0.817275 -0.177231 0
0.787158 -0.287674 0
0.822773 -0.277494 0
0.884542 -0.222780 0
0.948979 -0.170185 0
1.020610 -0.121979 0
1.064472 -0.078025 0
1.075401 -0.035924 0
1.075742 -0.006016 0
1.079201 0.007001 0
1.000000 -0.000857 0
1.000446 -0.002641 0
1.001441 -0.004542 0
1.002883 -0.006568 0
1.004777 -0.008761 0
1.007140 -0.011162 0
1.009988 -0.013854 0
1.013363 -0.016960 0
1.017336 -0.020648 0
1.022016 -0.025123 0
1.027543 -0.030638 0
1.034101 -0.037507 0
1.041928 -0.046140 0
1.051367 -0.057074 0
1.062957 -0.070980 0
1.077533 -0.088613 0
1.096187 -0.110820 0
1.120596 -0.138533 0
1.153236 -0.172638 0
1.200362 -0.212665 0
1.266816 -0.252060 0
1.354025 -0.290409 0
1.521134 -0.275358 0
1.621003 -0.186267 0
1.660108 -0.078732 0
1.660816 0.023131 0
1.632888 0.111672 0
1.585502 0.183961 0
1.519313 0.239619 0
1.432158 0.283887 0
1.332055 0.311455 0
1.216541 0.312465 0
1.067923 0.295193 0
1.095015 0.359589 0
1.120959 0.357995 0
0.825501 0.139721 0
0.431087 -0.137281 0
0.283927 -0.544441 0
0.385479 -0.906008 0
0.740917 -0.770675 0
1.118588 -0.393378 0
1.299111 -0.095809 0
1.425865 0.163376 0
1.473520 0.336811 0
1.442658 0.415228 0
1.367340 0.429906 0
1.276716 0.429373 0
1.176112 0.458797 0
1.103017 0.487427 0
1.053958 0.436678 0
1.016151 0.304859 0
1.015213 0.123942 0
0.956035 -0.079141 0
0.875438 -0.221556 0
0.849186 -0.280851 0
0.888911 -0.301202 0
0.964197 -0.297390 0
1.046270 -0.290581 0
1.107459 -0.292785 0
1.158146 -0.287886 0
1.202702 -0.262438 0
1.229981 -0.217003 0
1.236542 -0.152968 0
1.227023 -0.069983 0
1.207150 0.033695 0
1.183380 0.152855 0
1.158110 0.266112 0
1.128923 0.336768 0
1.088191 0.351448 0
1.062527 0.299893 0
1.059480 0.157041 0
1.058000 -0.022928 0
1.022587 -0.153209 0
1.010227 -0.205982 0
1.013880 -0.195223 0
1.010631 -0.155949 0
1.024105 -0.109513 0
1.068690 -0.057006 0
1.092001 -0.019274 0
1.046546 -0.020055 0
0.970662 -0.023039 0
0.926062 0.012666 0
0.913479 0.060691 0
0.906992 0.068279 0
0.894272 0.039482 0
0.863162 0.062855 0
0.789805 0.176116 0
0.715084 0.280275 0
0.782882 0.244682 0
0.885602 0.106790 0
0.873383 0.020438 0
0.752236 -0.034931 0
0.630354 -0.152902 0
0.594087 -0.258429 0
0.634289 -0.275972 0
0.687205 -0.254574 0
0.752408 -0.197951 0
0.826391 -0.102575 0
0.884965 -0.025977 0
0.880669 0.001830 0
0.884061 0.005295 0
1.000000 -0.001048 0
1.000225 -0.003289 0
1.001114 -0.005658 0
1.002283 -0.008097 0
1.003848 -0.010715 0
1.005802 -0.013548 0
1.008128 -0.016687 0
1.010831 -0.020282 0
1.013960 -0.024533 0
1.017585 -0.029672 0
1.021793 -0.035980 0
1.026682 -0.043803 0
1.032345 -0.053616 0
1.038927 -0.066106 0
1.046789 -0.082212 0
1.056759 -0.102963 0
1.069618 -0.129636 0
1.086906 -0.163875 0
1.108822 -0.209966 0
1.150897 -0.268747 0
1.208112 -0.330438 0
1.305747 -0.444347 0
1.614178 -0.441638 0
1.708688 -0.261489 0
1.718673 -0.094007 0
1.707098 0.042672 0
1.675667 0.153882 0
1.635095 0.243396 0
1.590415 0.322976 0
1.516140 0.387637 0
1.395205 0.436415 0
1.222150 0.492429 0
1.055350 0.343147 0
0.872227 0.146503 0
0.707889 0.417457 0
0.485694 0.688166 0
0.271665 0.311619 0
0.266779 -0.415755 0
0.220581 -1.042373 0
0.283786 -1.187764 0
0.678959 -0.750668 0
0.948683 -0.277810 0
1.117471 0.010331 0
1.225359 0.251451 0
1.299594 0.416426 0
1.303153 0.496602 0
1.251150 0.522350 0
1.183595 0.536337 0
1.132441 0.556066 0
1.070315 0.513817 0
0.967795 0.344597 0
0.852857 0.180600 0
0.743441 0.066723 0
0.636293 -0.082466 0
0.563830 -0.244603 0
0.553426 -0.374772 0
0.634215 -0.440756 0
0.794419 -0.433521 0
0.952084 -0.396873 0
1.058839 -0.364883 0
1.130378 -0.314445 0
1.177247 -0.235769 0
1.187764 -0.142073 0
1.176988 -0.040089 0
1.150562 0.068410 0
1.103685 0.181292 0
1.046819 0.298786 0
0.995875 0.408305 0
0.984590 0.421820 0
1.024910 0.295564 0
0.993484 0.120913 0
0.899224 0.000871 0
0.828804 -0.092574 0
0.794784 -0.166263 0
0.791243 -0.157302 0
0.797781 -0.130166 0
0.791355 -0.145496 0
0.781570 -0.135152 0
0.789268 -0.038816 0
0.788469 0.060864 0
0.751930 0.073701 0
0.697598 0.036813 0
0.665780 0.011141 0
0.680482 0.010238 0
0.711971 0.059593 0
0.722348 0.165215 0
0.740295 0.245708 0
0.790603 0.220686 0
0.829625 0.149351 0
0.758922 0.145756 0
0.584759 0.163702 0
0.450156 0.065800 0
0.405574 -0.129522 0
0.417949 -0.281426 0
0.461880 -0.315895 0
0.493441 -0.288301 0
0.506682 -0.261162 0
0.537840 -0.210579 0
0.585081 -0.090200 0
0.619103 -0.005109 0
0.626679 0.000952 0
1.000000 -0.001096 0
0.999937 -0.003772 0
1.000706 -0.006606 0
1.001645 -0.009308 0
1.002820 -0.012285 0
1.004332 -0.015448 0
1.006111 -0.018888 0
1.008087 -0.022798 0
1.010294 -0.027407 0
1.012763 -0.032962 0
1.015546 -0.039740 0
1.018664 -0.048063 0
1.022013 -0.058390 0
1.025390 -0.071524 0
1.028779 -0.088818 0
1.033401 -0.111447 0
1.039002 -0.140971 0
1.048404 -0.177741 0
1.049112 -0.236633 0
1.085762 -0.311958 0
1.103460 -0.406913 0
1.249331 -0.696477 0
1.617402 -0.678299 0
1.555604 -0.290762 0
1.471513 -0.077140 0
1.464104 0.066138 0
1.449822 0.183674 0
1.455777 0.269213 0
1.505719 0.358576 0
1.527780 0.479097 0
1.489142 0.605443 0
1.371177 0.652318 0
1.212221 0.645117 0
0.773639 0.707050 0
0.258269 0.744527 0
0.264541 0.575944 0
0.496177 0.081633 0
0.586182 -0.493358 0
0.483706 -0.923016 0
0.305492 -1.229053 0
0.375047 -1.058274 0
0.672223 -0.534319 0
0.875976 -0.113299 0
1.008919 0.154690 0
1.094643 0.337437 0
1.143209 0.478351 0
1.154242 0.548934 0
1.116924 0.577509 0
1.047666 0.600709 0
1.002918 0.601326 0
0.947370 0.522319 0
0.855855 0.348296 0
0.787459 0.137423 0
0.701317 -0.041946 0
0.624719 -0.197985 0
0.562942 -0.371589 0
0.541649 -0.538385 0
0.629633 -0.608452 0
0.798736 -0.557208 0
0.936010 -0.466184 0
1.024698 -0.380850 0
1.078099 -0.274393 0
1.095565 -0.152713 0
1.090988 -0.032785 0
1.074565 0.106995 0
1.042253 0.256594 0
1.022907 0.373918 0
1.036132 0.398994 0
1.038526 0.322411 0
0.952949 0.290997 0
0.834525 0.282725 0
0.744461 0.141750 0
0.738575 -0.048771 0
0.731407 -0.168422 0
0.706566 -0.198221 0
0.694901 -0.156061 0
0.670572 -0.093302 0
0.612161 -0.054919 0
0.567543 -0.026172 0
0.580769 0.017284 0
0.621091 0.067834 0
0.643170 0.098817 0
0.645952 0.077808 0
0.630243 0.022089 0
0.612684 -0.002383 0
0.657499 0.034533 0
0.769345 0.107863 0
0.848000 0.190948 0
0.788445 0.276366 0
0.619347 0.351659 0
0.493394 0.329207 0
0.453780 0.144257 0
0.416489 -0.120693 0
0.389704 -0.314731 0
0.407046 -0.351461 0
0.463001 -0.299373 0
0.478863 -0.242346 0
0.426205 -0.180971 0
0.422379 -0.107236 0
0.442830 -0.039764 0
0.449146 -0.009328 0
1.000000 -0.000998 0
0.999840 -0.004011 0
1.000182 -0.007372 0
1.001008 -0.010217 0
1.001755 -0.013407 0
1.002808 -0.016846 0
1.004037 -0.020449 0
1.005232 -0.024470 0
1.006486 -0.029214 0
1.007749 -0.034931 0
1.009090 -0.041886 0
1.010510 -0.050276 0
1.011795 -0.060349 0
1.012009 -0.072877 0
1.010503 -0.090228 0
1.012189 -0.113192 0
1.005772 -0.144644 0
1.008793 -0.173990 0
0.994813 -0.247329 0
1.003120 -0.323099 0
0.978814 -0.494011 0
1.091687 -0.958292 0
0.780668 -0.632314 0
-0.000331 0.000000 0
-0.001548 0.000000 0
0.607082 0.066868 0
0.685758 0.162209 0
0.547803 0.187501 0
0.849396 0.250973 0
1.182558 0.404211 0
1.250039 0.593016 0
1.233683 0.769350 0
1.138040 0.940686 0
0.884488 1.100453 0
0.741756 0.926553 0
0.751700 0.450257 0
0.787456 -0.010023 0
0.704109 -0.403285 0
0.601307 -0.761684 0
0.458636 -1.079105 0
0.320440 -1.117398 0
0.468405 -0.778738 0
0.672315 -0.326364 0
0.842968 0.032786 0
0.943996 0.282137 0
1.019545 0.437005 0
1.053947 0.548637 0
1.058770 0.642916 0
1.068398 0.670074 0
1.101518 0.614114 0
1.085623 0.491661 0
0.979857 0.340511 0
0.836846 0.221260 0
0.780684 0.080273 0
0.837908 -0.106229 0
0.867154 -0.291705 0
0.796835 -0.507450 0
0.690118 -0.690611 0
0.739020 -0.703253 0
0.829636 -0.590849 0
0.871478 -0.456538 0
0.867416 -0.306639 0
0.854718 -0.154966 0
0.849785 -0.019093 0
0.871569 0.117141 0
0.907880 0.232947 0
0.927718 0.304904 0
0.908171 0.392683 0
0.833543 0.505001 0
0.759792 0.499562 0
0.810719 0.329399 0
0.884262 0.096819 0
0.846948 -0.079521 0
0.745767 -0.134255 0
0.649848 -0.120797 0
0.574132 -0.094173 0
0.519888 -0.062755 0
0.474224 -0.032123 0
0.435467 -0.007424 0
0.429217 0.007317 0
0.472454 0.011301 0
0.556723 0.011954 0
0.639874 0.024070 0
0.665880 0.043508 0
0.642696 0.032339 0
0.626963 0.008556 0
0.616561 0.055209 0
0.579236 0.201590 0
0.508251 0.378007 0
0.494073 0.440811 0
0.614273 0.329273 0
0.775910 0.142708 0
0.834645 -0.065442 0
0.690261 -0.271980 0
0.451847 -0.389188 0
0.409619 -0.360113 0
0.409032 -0.224362 0
0.383830 -0.154091 0
0.375520 -0.106821 0
0.341071 -0.031872 0
0.343320 -0.012748 0
1.000000 -0.000948 0
0.999928 -0.003969 0
0.999802 -0.007780 0
1.000189 -0.010887 0
1.000518 -0.014092 0
1.001310 -0.017735 0
1.002112 -0.021318 0
1.002413 -0.025253 0
1.002783 -0.029931 0
1.002804 -0.035573 0
1.003435 -0.042508 0
1.001847 -0.050774 0
1.003612 -0.059895 0
0.998834 -0.070238 0
0.999664 -0.089005 0
0.988627 -0.106722 0
0.988201 -0.137580 0
0.962386 -0.166788 0
0.969899 -0.230965 0
0.890657 -0.295964 0
0.893296 -0.495485 0
0.638303 -0.613934 0
0.000000 -0.002096 0
-0.682047 0.266236 0
-0.607053 0.000000 0
0.000000 0.000000 0
0.078479 0.254565 0
0.156158 0.105576 0
0.133745 -0.276180 0
0.786966 0.078451 0
0.888486 0.554315 0
0.929634 0.764316 0
0.882581 0.994310 0
0.846594 1.103333 0
0.911366 0.877313 0
0.791679 0.530241 0
0.706707 0.129222 0
0.666100 -0.307210 0
0.640839 -0.677543 0
0.552656 -0.948186 0
0.420417 -1.068042 0
0.408685 -0.886193 0
0.532960 -0.487860 0
0.703412 -0.116990 0
0.843372 0.160862 0
0.926055 0.368402 0
0.971485 0.509711 0
1.048076 0.563060 0
1.141479 0.557962 0
1.122879 0.584102 0
1.013156 0.643980 0
0.854921 0.597072 0
0.755809 0.336595 0
0.821846 -0.043009 0
0.943769 -0.284456 0
1.032295 -0.330519 0
1.043411 -0.361353 0
0.922209 -0.550640 0
0.776793 -0.696729 0
0.770482 -0.598647 0
0.811442 -0.418634 0
0.789132 -0.257636 0
0.724362 -0.135086 0
0.657842 -0.049639 0
0.617612 0.048895 0
0.614421 0.200441 0
0.609409 0.373624 0
0.603334 0.493167 0
0.676985 0.470787 0
0.829587 0.313818 0
0.938442 0.158254 0
0.949747 0.105519 0
0.853531 0.089723 0
0.721934 0.028677 0
0.619517 -0.026587 0
0.543218 -0.026101 0
0.475757 0.006606 0
0.415796 0.029502 0
0.378234 0.018835 0
0.377922 -0.019702 0
0.414989 -0.059671 0
0.479270 -0.068601 0
0.559813 -0.031347 0
0.650058 0.019270 0
0.706089 0.036537 0
0.660163 0.060670 0
0.540645 0.155594 0
0.451827 0.299261 0
0.456972 0.361533 0
0.568438 0.245641 0
0.755729 0.047374 0
0.946458 -0.076111 0
1.068932 -0.035040 0
1.034570 0.068072 0
0.835362 -0.070814 0
0.524703 -0.256553 0
0.320648 -0.216552 0
0.260600 -0.147454 0
0.208154 -0.064473 0
0.189760 -0.007560 0
0.191468 -0.014912 0
1.000000 -0.000939 0
0.999983 -0.003828 0
0.999671 -0.007640 0
0.999650 -0.010939 0
0.999630 -0.014534 0
0.999930 -0.018446 0
1.000014 -0.021559 0
1.000333 -0.025148 0
0.998970 -0.029612 0
0.999249 -0.035589 0
0.998650 -0.040936 0
0.997158 -0.050460 0
0.993010 -0.057342 0
0.991005 -0.068936 0
0.986843 -0.080028 0
0.976532 -0.101736 0
0.966368 -0.118410 0
0.940778 -0.155694 0
0.921942 -0.175606 0
0.848350 -0.246503 0
0.787752 -0.241663 0
0.464877 -0.164603 0
0.314890 -0.093614 0
0.000000 0.000000 0
0.000000 0.000000 0
0.000000 0.000000 0
0.000000 0.000000 0
0.236903 0.114572 0
0.097068 -0.379838 0
0.191251 -0.350533 0
0.585674 0.450347 0
0.694806 0.775254 0
0.673223 1.023723 0
0.731098 1.071666 0
0.592407 0.981466 0
0.549562 0.654913 0
0.656163 0.115554 0
0.727015 -0.337417 0
0.729937 -0.648241 0
0.676889 -0.858683 0
0.570549 -0.973426 0
0.468554 -0.891281 0
0.504538 -0.621090 0
0.627882 -0.277624 0
0.767583 0.059496 0
0.879169 0.308893 0
0.978169 0.426617 0
1.026413 0.472924 0
0.991197 0.595272 0
0.904979 0.742437 0
0.867465 0.759618 0
0.895300 0.597858 0
0.929648 0.254333 0
0.861283 -0.107689 0
0.698196 -0.316681 0
0.615642 -0.391350 0
0.674545 -0.397367 0
0.752586 -0.423996 0
0.680521 -0.551530 0
0.640239 -0.625503 0