# vtk DataFile Version 2.0
generated by CFD-lab course output (written by Tobias Neckel) 
ASCII

DATASET STRUCTURED_GRID
DIMENSIONS  101 21 1 
POINTS 2121 float

0.000000 0.000000 0
0.100000 0.000000 0
0.200000 0.000000 0
0.300000 0.000000 0
0.400000 0.000000 0
0.500000 0.000000 0
0.600000 0.000000 0
0.700000 0.000000 0
0.800000 0.000000 0
0.900000 0.000000 0
1.000000 0.000000 0
1.100000 0.000000 0
1.200000 0.000000 0
1.300000 0.000000 0
1.400000 0.000000 0
1.500000 0.000000 0
1.600000 0.000000 0
1.700000 0.000000 0
1.800000 0.000000 0
1.900000 0.000000 0
2.000000 0.000000 0
2.100000 0.000000 0
2.200000 0.000000 0
2.300000 0.000000 0
2.400000 0.000000 0
2.500000 0.000000 0
2.600000 0.000000 0
2.700000 0.000000 0
2.800000 0.000000 0
2.900000 0.000000 0
3.000000 0.000000 0
3.100000 0.000000 0
3.200000 0.000000 0
3.300000 0.000000 0
3.400000 0.000000 0
3.500000 0.000000 0
3.600000 0.000000 0
3.700000 0.000000 0
3.800000 0.000000 0
3.900000 0.000000 0
4.000000 0.000000 0
4.100000 0.000000 0
4.200000 0.000000 0
4.300000 0.000000 0
4.400000 0.000000 0
4.500000 0.000000 0
4.600000 0.000000 0
4.700000 0.000000 0
4.800000 0.000000 0
4.900000 0.000000 0
5.000000 0.000000 0
5.100000 0.000000 0
5.200000 0.000000 0
5.300000 0.000000 0
5.400000 0.000000 0
5.500000 0.000000 0
5.600000 0.000000 0
5.700000 0.000000 0
5.800000 0.000000 0
5.900000 0.000000 0
6.000000 0.000000 0
6.100000 0.000000 0
6.200000 0.000000 0
6.300000 0.000000 0
6.400000 0.000000 0
6.500000 0.000000 0
6.600000 0.000000 0
6.700000 0.000000 0
6.800000 0.000000 0
6.900000 0.000000 0
7.000000 0.000000 0
7.100000 0.000000 0
7.200000 0.000000 0
7.300000 0.000000 0
7.400000 0.000000 0
7.500000 0.000000 0
7.600000 0.000000 0
7.700000 0.000000 0
7.800000 0.000000 0
7.900000 0.000000 0
8.000000 0.000000 0
8.100000 0.000000 0
8.200000 0.000000 0
8.300000 0.000000 0
8.400000 0.000000 0
8.500000 0.000000 0
8.600000 0.000000 0
8.700000 0.000000 0
8.800000 0.000000 0
8.900000 0.000000 0
9.000000 0.000000 0
9.100000 0.000000 0
9.200000 0.000000 0
9.300000 0.000000 0
9.400000 0.000000 0
9.500000 0.000000 0
9.600000 0.000000 0
9.700000 0.000000 0
9.800000 0.000000 0
9.900000 0.000000 0
10.000000 0.000000 0
0.000000 0.100000 0
0.100000 0.100000 0
0.200000 0.100000 0
0.300000 0.100000 0
0.400000 0.100000 0
0.500000 0.100000 0
0.600000 0.100000 0
0.700000 0.100000 0
0.800000 0.100000 0
0.900000 0.100000 0
1.000000 0.100000 0
1.100000 0.100000 0
1.200000 0.100000 0
1.300000 0.100000 0
1.400000 0.100000 0
1.500000 0.100000 0
1.600000 0.100000 0
1.700000 0.100000 0
1.800000 0.100000 0
1.900000 0.100000 0
2.000000 0.100000 0
2.100000 0.100000 0
2.200000 0.100000 0
2.300000 0.100000 0
2.400000 0.100000 0
2.500000 0.100000 0
2.600000 0.100000 0
2.700000 0.100000 0
2.800000 0.100000 0
2.900000 0.100000 0
3.000000 0.100000 0
3.100000 0.100000 0
3.200000 0.100000 0
3.300000 0.100000 0
3.400000 0.100000 0
3.500000 0.100000 0
3.600000 0.100000 0
3.700000 0.100000 0
3.800000 0.100000 0
3.900000 0.100000 0
4.000000 0.100000 0
4.100000 0.100000 0
4.200000 0.100000 0
4.300000 0.100000 0
4.400000 0.100000 0
4.500000 0.100000 0
4.600000 0.100000 0
4.700000 0.100000 0
4.800000 0.100000 0
4.900000 0.100000 0
5.000000 0.100000 0
5.100000 0.100000 0
5.200000 0.100000 0
5.300000 0.100000 0
5.400000 0.100000 0
5.500000 0.100000 0
5.600000 0.100000 0
5.700000 0.100000 0
5.800000 0.100000 0
5.900000 0.100000 0
6.000000 0.100000 0
6.100000 0.100000 0
6.200000 0.100000 0
6.300000 0.100000 0
6.400000 0.100000 0
6.500000 0.100000 0
6.600000 0.100000 0
6.700000 0.100000 0
6.800000 0.100000 0
6.900000 0.100000 0
7.000000 0.100000 0
7.100000 0.100000 0
7.200000 0.100000 0
7.300000 0.100000 0
7.400000 0.100000 0
7.500000 0.100000 0
7.600000 0.100000 0
7.700000 0.100000 0
7.800000 0.100000 0
7.900000 0.100000 0
8.000000 0.100000 0
8.100000 0.100000 0
8.200000 0.100000 0
8.300000 0.100000 0
8.400000 0.100000 0
8.500000 0.100000 0
8.600000 0.100000 0
8.700000 0.100000 0
8.800000 0.100000 0
8.900000 0.100000 0
9.000000 0.100000 0
9.100000 0.100000 0
9.200000 0.100000 0
9.300000 0.100000 0
9.400000 0.100000 0
9.500000 0.100000 0
9.600000 0.100000 0
9.700000 0.100000 0
9.800000 0.100000 0
9.900000 0.100000 0
10.000000 0.100000 0
0.000000 0.200000 0
0.100000 0.200000 0
0.200000 0.200000 0
0.300000 0.200000 0
0.400000 0.200000 0
0.500000 0.200000 0
0.600000 0.200000 0
0.700000 0.200000 0
0.800000 0.200000 0
0.900000 0.200000 0
1.000000 0.200000 0
1.100000 0.200000 0
1.200000 0.200000 0
1.300000 0.200000 0
1.400000 0.200000 0
1.500000 0.200000 0
1.600000 0.200000 0
1.700000 0.200000 0
1.800000 0.200000 0
1.900000 0.200000 0
2.000000 0.200000 0
2.100000 0.200000 0
2.200000 0.200000 0
2.300000 0.200000 0
2.400000 0.200000 0
2.500000 0.200000 0
2.600000 0.200000 0
2.700000 0.200000 0
2.800000 0.200000 0
2.900000 0.200000 0
3.000000 0.200000 0
3.100000 0.200000 0
3.200000 0.200000 0
3.300000 0.200000 0
3.400000 0.200000 0
3.500000 0.200000 0
3.600000 0.200000 0
3.700000 0.200000 0
3.800000 0.200000 0
3.900000 0.200000 0
4.000000 0.200000 0
4.100000 0.200000 0
4.200000 0.200000 0
4.300000 0.200000 0
4.400000 0.200000 0
4.500000 0.200000 0
4.600000 0.200000 0
4.700000 0.200000 0
4.800000 0.200000 0
4.900000 0.200000 0
5.000000 0.200000 0
5.100000 0.200000 0
5.200000 0.200000 0
5.300000 0.200000 0
5.400000 0.200000 0
5.500000 0.200000 0
5.600000 0.200000 0
5.700000 0.200000 0
5.800000 0.200000 0
5.900000 0.200000 0
6.000000 0.200000 0
6.100000 0.200000 0
6.200000 0.200000 0
6.300000 0.200000 0
6.400000 0.200000 0
6.500000 0.200000 0
6.600000 0.200000 0
6.700000 0.200000 0
6.800000 0.200000 0
6.900000 0.200000 0
7.000000 0.200000 0
7.100000 0.200000 0
7.200000 0.200000 0
7.300000 0.200000 0
7.400000 0.200000 0
7.500000 0.200000 0
7.600000 0.200000 0
7.700000 0.200000 0
7.800000 0.200000 0
7.900000 0.200000 0
8.000000 0.200000 0
8.100000 0.200000 0
8.200000 0.200000 0
8.300000 0.200000 0
8.400000 0.200000 0
8.500000 0.200000 0
8.600000 0.200000 0
8.700000 0.200000 0
8.800000 0.200000 0
8.900000 0.200000 0
9.000000 0.200000 0
9.100000 0.200000 0
9.200000 0.200000 0
9.300000 0.200000 0
9.400000 0.200000 0
9.500000 0.200000 0
9.600000 0.200000 0
9.700000 0.200000 0
9.800000 0.200000 0
9.900000 0.200000 0
10.000000 0.200000 0
0.000000 0.300000 0
0.100000 0.300000 0
0.200000 0.300000 0
0.300000 0.300000 0
0.400000 0.300000 0
0.500000 0.300000 0
0.600000 0.300000 0
0.700000 0.300000 0
0.800000 0.300000 0
0.900000 0.300000 0
1.000000 0.300000 0
1.100000 0.300000 0
1.200000 0.300000 0
1.300000 0.300000 0
1.400000 0.300000 0
1.500000 0.300000 0
1.600000 0.300000 0
1.700000 0.300000 0
1.800000 0.300000 0
1.900000 0.300000 0
2.000000 0.300000 0
2.100000 0.300000 0
2.200000 0.300000 0
2.300000 0.300000 0
2.400000 0.300000 0
2.500000 0.300000 0
2.600000 0.300000 0
2.700000 0.300000 0
2.800000 0.300000 0
2.900000 0.300000 0
3.000000 0.300000 0
3.100000 0.300000 0
3.200000 0.300000 0
3.300000 0.300000 0
3.400000 0.300000 0
3.500000 0.300000 0
3.600000 0.300000 0
3.700000 0.300000 0
3.800000 0.300000 0
3.900000 0.300000 0
4.000000 0.300000 0
4.100000 0.300000 0
4.200000 0.300000 0
4.300000 0.300000 0
4.400000 0.300000 0
4.500000 0.300000 0
4.600000 0.300000 0
4.700000 0.300000 0
4.800000 0.300000 0
4.900000 0.300000 0
5.000000 0.300000 0
5.100000 0.300000 0
5.200000 0.300000 0
5.300000 0.300000 0
5.400000 0.300000 0
5.500000 0.300000 0
5.600000 0.300000 0
5.700000 0.300000 0
5.800000 0.300000 0
5.900000 0.300000 0
6.000000 0.300000 0
6.100000 0.300000 0
6.200000 0.300000 0
6.300000 0.300000 0
6.400000 0.300000 0
6.500000 0.300000 0
6.600000 0.300000 0
6.700000 0.300000 0
6.800000 0.300000 0
6.900000 0.300000 0
7.000000 0.300000 0
7.100000 0.300000 0
7.200000 0.300000 0
7.300000 0.300000 0
7.400000 0.300000 0
7.500000 0.300000 0
7.600000 0.300000 0
7.700000 0.300000 0
7.800000 0.300000 0
7.900000 0.300000 0
8.000000 0.300000 0
8.100000 0.300000 0
8.200000 0.300000 0
8.300000 0.300000 0
8.400000 0.300000 0
8.500000 0.300000 0
8.600000 0.300000 0
8.700000 0.300000 0
8.800000 0.300000 0
8.900000 0.300000 0
9.000000 0.300000 0
9.100000 0.300000 0
9.200000 0.300000 0
9.300000 0.300000 0
9.400000 0.300000 0
9.500000 0.300000 0
9.600000 0.300000 0
9.700000 0.300000 0
9.800000 0.300000 0
9.900000 0.300000 0
10.000000 0.300000 0
0.000000 0.400000 0
0.100000 0.400000 0
0.200000 0.400000 0
0.300000 0.400000 0
0.400000 0.400000 0
0.500000 0.400000 0
0.600000 0.400000 0
0.700000 0.400000 0
0.800000 0.400000 0
0.900000 0.400000 0
1.000000 0.400000 0
1.100000 0.400000 0
1.200000 0.400000 0
1.300000 0.400000 0
1.400000 0.400000 0
1.500000 0.400000 0
1.600000 0.400000 0
1.700000 0.400000 0
1.800000 0.400000 0
1.900000 0.400000 0
2.000000 0.400000 0
2.100000 0.400000 0
2.200000 0.400000 0
2.300000 0.400000 0
2.400000 0.400000 0
2.500000 0.400000 0
2.600000 0.400000 0
2.700000 0.400000 0
2.800000 0.400000 0
2.900000 0.400000 0
3.000000 0.400000 0
3.100000 0.400000 0
3.200000 0.400000 0
3.300000 0.400000 0
3.400000 0.400000 0
3.500000 0.400000 0
3.600000 0.400000 0
3.700000 0.400000 0
3.800000 0.400000 0
3.900000 0.400000 0
4.000000 0.400000 0
4.100000 0.400000 0
4.200000 0.400000 0
4.300000 0.400000 0
4.400000 0.400000 0
4.500000 0.400000 0
4.600000 0.400000 0
4.700000 0.400000 0
4.800000 0.400000 0
4.900000 0.400000 0
5.000000 0.400000 0
5.100000 0.400000 0
5.200000 0.400000 0
5.300000 0.400000 0
5.400000 0.400000 0
5.500000 0.400000 0
5.600000 0.400000 0
5.700000 0.400000 0
5.800000 0.400000 0
5.900000 0.400000 0
6.000000 0.400000 0
6.100000 0.400000 0
6.200000 0.400000 0
6.300000 0.400000 0
6.400000 0.400000 0
6.500000 0.400000 0
6.600000 0.400000 0
6.700000 0.400000 0
6.800000 0.400000 0
6.900000 0.400000 0
7.000000 0.400000 0
7.100000 0.400000 0
7.200000 0.400000 0
7.300000 0.400000 0
7.400000 0.400000 0
7.500000 0.400000 0
7.600000 0.400000 0
7.700000 0.400000 0
7.800000 0.400000 0
7.900000 0.400000 0
8.000000 0.400000 0
8.100000 0.400000 0
8.200000 0.400000 0
8.300000 0.400000 0
8.400000 0.400000 0
8.500000 0.400000 0
8.600000 0.400000 0
[...]
POINT_DATA 2121 

VECTORS velocity float
0.500000 0.000000 0
-0.000001 0.000000 0
-0.000003 0.000000 0
-0.000003 0.000000 0
0.000001 0.000000 0
0.000017 0.000000 0
0.000036 0.000000 0
0.000056 0.000000 0
0.000085 0.000000 0
0.000122 0.000000 0
0.000165 0.000000 0
0.000215 0.000000 0
0.000271 0.000000 0
0.000337 0.000000 0
0.000410 0.000000 0
0.000492 0.000000 0
0.000582 0.000000 0
0.000679 0.000000 0
0.000786 0.000000 0
0.000907 0.000000 0
0.001049 0.000000 0
0.001223 0.000000 0
0.001440 0.000000 0
0.001692 0.000000 0
0.001893 0.000000 0
0.001977 0.000000 0
0.001914 0.000000 0
0.001747 0.000000 0
0.001486 0.000000 0
0.001087 0.000000 0
0.000487 0.000000 0
-0.000395 0.000000 0
-0.001632 0.000000 0
-0.003251 0.000000 0
-0.005207 0.000000 0
-0.007289 0.000000 0
-0.008950 0.000000 0
-0.009469 0.000000 0
-0.008457 0.000000 0
-0.005348 0.000000 0
-0.001198 0.000000 0
0.002335 0.000000 0
0.004899 0.000000 0
0.006784 0.000000 0
0.008031 0.000000 0
0.008233 0.000000 0
0.008051 0.000000 0
0.012887 0.000000 0
0.017984 0.000000 0
0.011709 0.000000 0
0.000326 0.000000 0
-0.003936 0.000000 0
0.012243 0.000000 0
0.014119 0.000000 0
0.008818 0.000000 0
0.004081 0.000000 0
0.000238 0.000000 0
-0.003507 0.000000 0
-0.007498 0.000000 0
-0.011163 0.000000 0
-0.013422 0.000000 0
-0.014058 0.000000 0
-0.013282 0.000000 0
-0.011607 0.000000 0
-0.010431 0.000000 0
-0.014306 0.000000 0
-0.016183 0.000000 0
-0.017629 0.000000 0
-0.018231 0.000000 0
-0.017809 0.000000 0
-0.016542 0.000000 0
-0.014549 0.000000 0
-0.011739 0.000000 0
-0.007993 0.000000 0
-0.003253 0.000000 0
0.002467 0.000000 0
0.009130 0.000000 0
0.016258 0.000000 0
0.023269 0.000000 0
0.031569 0.000000 0
0.040911 0.000000 0
0.033273 0.000000 0
0.007021 0.000000 0
-0.005221 0.000000 0
-0.006770 0.000000 0
-0.005095 0.000000 0
-0.003066 0.000000 0
-0.001759 0.000000 0
-0.001286 0.000000 0
-0.000163 0.000000 0
-0.000098 0.000000 0
-0.000410 0.000000 0
-0.000400 0.000000 0
-0.000304 0.000000 0
-0.000265 0.000000 0
-0.000264 0.000000 0
-0.000283 0.000000 0
-0.000320 0.000000 0
-0.000340 0.000000 0
-0.000327 0.000000 0
-0.000324 0.000000 0
1.000000 0.000278 0
1.000147 0.000527 0
1.000568 0.000340 0
1.001367 -0.000054 0
1.002623 -0.000627 0
1.004412 -0.001218 0
1.006776 -0.001812 0
1.009804 -0.002562 0
1.013623 -0.003461 0
1.018392 -0.004560 0
1.024338 -0.005935 0
1.031758 -0.007668 0
1.041036 -0.009858 0
1.052668 -0.012619 0
1.067283 -0.016084 0
1.085648 -0.020375 0
1.108669 -0.025558 0
1.137318 -0.031552 0
1.172475 -0.038005 0
1.214600 -0.044123 0
1.263190 -0.048497 0
1.315898 -0.049156 0
1.368090 -0.043819 0
1.411021 -0.031777 0
1.437218 -0.015295 0
1.444341 0.002359 0
1.433279 0.018799 0
1.406731 0.032792 0
1.367422 0.043657 0
1.318669 0.050611 0
1.264608 0.052693 0
1.210424 0.048845 0
1.162458 0.038155 0
1.127726 0.019930 0
1.114385 -0.005920 0
1.132319 -0.036642 0
1.185705 -0.065862 0
1.269841 -0.085900 0
1.370495 -0.087963 0
1.459242 -0.065973 0
1.513548 -0.028305 0
1.526005 0.008787 0
1.501399 0.038684 0
1.450897 0.061912 0
1.381983 0.077862 0
1.301502 0.083714 0
1.214025 0.090483 0
1.116299 0.136104 0
1.005891 0.189618 0
0.915557 0.165169 0
0.876692 0.065125 0
0.776312 0.028423 0
0.554075 0.090221 0
0.387209 0.107203 0
0.313115 0.060559 0
0.287859 0.016844 0
0.282373 -0.014764 0
0.295159 -0.044100 0
0.332002 -0.076251 0
0.400786 -0.104540 0
0.498628 -0.119515 0
0.613430 -0.119186 0
0.733019 -0.108489 0
0.846014 -0.091750 0
0.948658 -0.084340 0
1.041441 -0.096557 0
1.142045 -0.112782 0
1.255839 -0.123233 0
1.377628 -0.127544 0
1.500929 -0.124022 0
1.616953 -0.113324 0
1.719095 -0.096437 0
1.800746 -0.073621 0
1.856053 -0.045133 0
1.881078 -0.011281 0
1.873037 0.028111 0
1.828547 0.073149 0
1.745033 0.121914 0
1.624923 0.171078 0
1.463896 0.223351 0
1.272437 0.279666 0
1.095636 0.248166 0
0.995733 0.096559 0
0.972284 -0.021826 0
0.978511 -0.047255 0
0.982325 -0.038003 0
0.974052 -0.023278 0
0.956464 -0.012690 0
0.935930 -0.006848 0
0.916864 -0.001845 0
0.906170 0.000626 0
0.905917 -0.000856 0
0.909257 -0.001331 0
0.910249 -0.000496 0
0.910123 0.000202 0
0.909952 0.000517 0
0.909977 0.000604 0
0.910134 0.000354 0
0.909995 0.000177 0
0.909568 -0.000197 0
0.910056 -0.000651 0
1.000000 -0.000147 0
1.000729 -0.000569 0
1.001957 -0.001222 0
1.003637 -0.002059 0
1.005763 -0.003051 0
1.008310 -0.004155 0
1.011441 -0.005392 0
1.015189 -0.006844 0
1.019654 -0.008584 0
1.024983 -0.010714 0
1.031379 -0.013364 0
1.039093 -0.016697 0
1.048477 -0.020912 0
1.059985 -0.026251 0
1.074222 -0.032988 0
1.091960 -0.041398 0
1.114182 -0.051686 0
1.142104 -0.063826 0
1.177075 -0.077305 0
1.220395 -0.090743 0
1.272782 -0.101325 0
1.332690 -0.104927 0
1.397481 -0.095153 0
1.451224 -0.069157 0
1.481843 -0.033347 0
1.488980 0.003915 0
1.475382 0.037588 0
1.446295 0.065838 0
1.403803 0.088046 0
1.350764 0.102800 0
1.290713 0.108233 0
1.228404 0.102141 0
1.170850 0.082690 0
1.123946 0.048064 0
1.095479 -0.004600 0
1.105855 -0.071326 0
1.163479 -0.137526 0
1.262011 -0.184792 0
1.378791 -0.189407 0
1.486208 -0.143058 0
1.557705 -0.066765 0
1.581064 0.012147 0
1.559170 0.075107 0
1.507809 0.119415 0
1.442863 0.149394 0
1.369363 0.167959 0
1.283333 0.185201 0
1.191503 0.208132 0
1.137481 0.200741 0
1.144437 0.129195 0
1.134230 0.139242 0
0.850259 0.322613 0
0.555551 0.389097 0
0.443138 0.240954 0
0.437707 0.099345 0
0.451981 0.030737 0
0.445899 -0.007306 0
0.414203 -0.049634 0
0.389544 -0.105632 0
0.396425 -0.166630 0
0.439906 -0.212647 0
0.513259 -0.234394 0
0.609048 -0.232586 0
0.721686 -0.215641 0
0.843163 -0.195427 0
0.958298 -0.193388 0
1.058244 -0.214398 0
1.158589 -0.235582 0
1.266990 -0.245090 0
1.375477 -0.239325 0
1.477999 -0.218164 0
1.568405 -0.183790 0
1.639678 -0.136956 0
1.685925 -0.080329 0
1.704534 -0.016980 0
1.695673 0.052535 0
1.660889 0.128008 0
1.601833 0.203628 0
1.519915 0.281141 0
1.421085 0.352490 0
1.337940 0.368263 0
1.317815 0.276708 0
1.302675 0.123355 0
1.250970 0.017225 0
1.200143 -0.010038 0
1.157908 0.004462 0
1.121881 0.025864 0
1.086529 0.038123 0
1.053175 0.039600 0
1.023978 0.029761 0
1.003447 0.010948 0
0.987061 -0.003086 0
0.972157 -0.004332 0
0.963928 -0.000867 0
0.961043 0.000297 0
0.960619 0.000146 0
0.960692 -0.000183 0
0.960600 -0.000018 0
0.960247 0.000566 0
0.960369 -0.000062 0
0.960842 -0.000979 0
1.000000 -0.000451 0
1.000537 -0.001431 0
1.001554 -0.002570 0
1.003024 -0.003863 0
1.004931 -0.005301 0
1.007270 -0.006893 0
1.010098 -0.008688 0
1.013467 -0.010771 0
1.017452 -0.013255 0
1.022172 -0.016285 0
1.027789 -0.020044 0
1.034508 -0.024768 0
1.042622 -0.030752 0
1.052522 -0.038369 0
1.064761 -0.048065 0
1.080096 -0.060345 0
1.099586 -0.075713 0
1.124830 -0.094455 0
1.157809 -0.116309 0
1.201346 -0.139842 0
1.258506 -0.160802 0
1.328852 -0.173864 0
1.422135 -0.162365 0
1.492011 -0.116149 0
1.528147 -0.053058 0
1.535342 0.008813 0
1.518682 0.061479 0
1.481110 0.104365 0
1.428677 0.139185 0
1.365248 0.163699 0
1.293323 0.175050 0
1.217934 0.168706 0
1.141020 0.142609 0
1.074268 0.095298 0
1.002502 0.012169 0
1.004720 -0.104643 0
1.064847 -0.222017 0
1.161940 -0.301214 0
1.286033 -0.312163 0
1.408094 -0.244887 0
1.512430 -0.123162 0
1.568499 0.007323 0
1.575650 0.111939 0
1.537010 0.178219 0
1.465154 0.216309 0
1.379607 0.243245 0
1.295041 0.268341 0
1.223857 0.281955 0
1.184205 0.236683 0
1.154550 0.168418 0
0.926071 0.359302 0
0.612183 0.607100 0
0.539926 0.497340 0
0.592801 0.225046 0
0.637100 0.051715 0
0.628924 0.008651 0
0.563764 0.023013 0
0.473833 0.012255 0
0.421132 -0.058474 0
0.425119 -0.154903 0
0.457050 -0.236348 0
0.498947 -0.288327 0
0.550849 -0.316916 0
0.621788 -0.325865 0
0.711765 -0.320951 0
0.819113 -0.311638 0
0.925241 -0.313072 0
1.024929 -0.331979 0
1.117035 -0.344432 0
1.206147 -0.335030 0
1.290538 -0.306251 0
1.365045 -0.258116 0
1.424122 -0.191141 0
1.461822 -0.109987 0
1.476400 -0.021027 0
1.469050 0.071755 0
1.443716 0.166990 0
1.404760 0.262891 0
1.355760 0.351827 0
1.317865 0.405327 0
1.310426 0.382937 0
1.316776 0.283431 0
1.285804 0.163405 0
1.213419 0.080706 0
1.136536 0.045808 0
1.077649 0.040260 0
1.041852 0.048101 0
1.024048 0.056016 0
1.013424 0.055704 0
1.005587 0.047884 0
0.994644 0.037544 0
0.978697 0.030435 0
0.963946 0.021803 0
0.957210 0.010618 0
0.957285 0.003513 0
0.958695 0.000869 0
0.958808 0.000624 0
0.958231 0.000800 0
0.958068 0.000408 0
0.958588 -0.000790 0
0.959231 -0.001610 0
1.000000 -0.000684 0
1.000400 -0.002124 0
1.001221 -0.003712 0
1.002478 -0.005439 0
1.004136 -0.007296 0
1.006172 -0.009319 0
1.008607 -0.011585 0
1.011479 -0.014196 0
1.014836 -0.017291 0
1.018766 -0.021049 0
1.023375 -0.025700 0
1.028815 -0.031533 0
1.035278 -0.038930 0
1.043056 -0.048395 0
1.052593 -0.060567 0
1.064560 -0.076233 0
1.079856 -0.096429 0
1.100625 -0.122058 0
1.128989 -0.153834 0
1.170371 -0.191449 0
1.230653 -0.228841 0
1.311663 -0.268569 0
1.465196 -0.258323 0
1.558873 -0.175177 0
1.596743 -0.076683 0
1.600883 0.013372 0
1.581052 0.091813 0
1.536721 0.155839 0
1.470789 0.203905 0
1.391882 0.238151 0
1.299816 0.255544 0
1.178306 0.254440 0
1.099148 0.226354 0
1.097727 0.186581 0
0.942184 0.064945 0
0.881468 -0.133671 0
0.849470 -0.294745 0
0.826174 -0.405982 0
0.921721 -0.435562 0
1.091319 -0.369454 0
1.247567 -0.227170 0
1.352571 -0.051073 0
1.423491 0.106596 0
1.461965 0.229913 0
1.447913 0.306799 0
1.394178 0.338070 0
1.320945 0.340951 0
1.251861 0.318967 0
1.194345 0.270045 0
1.067615 0.387329 0
0.761174 0.681608 0
0.655315 0.708757 0
0.671907 0.408479 0
0.669649 0.143779 0
0.602970 0.063221 0
0.482787 0.104072 0
0.349346 0.147785 0
0.274248 0.092998 0
0.292831 -0.056918 0
0.379563 -0.202548 0
0.473271 -0.286475 0
0.543987 -0.328191 0
0.593760 -0.355426 0
0.633952 -0.376557 0
0.678121 -0.392753 0
0.728426 -0.406863 0
0.791757 -0.420213 0
0.863316 -0.427376 0
0.935693 -0.426308 0
1.008581 -0.412827 0
1.075221 -0.377062 0
1.130203 -0.317374 0
1.174405 -0.233731 0
1.206582 -0.132606 0
1.223289 -0.024207 0
1.223656 0.085220 0
1.210179 0.192299 0
1.189322 0.291585 0
1.171992 0.368037 0
1.171457 0.397824 0
1.184212 0.369353 0
1.184708 0.301331 0
1.153767 0.226713 0
1.101645 0.166494 0
1.050374 0.125732 0
1.012297 0.099146 0
0.990382 0.079466 0
0.983575 0.066553 0
0.984578 0.058062 0
0.987889 0.048541 0
0.989486 0.037839 0
0.989407 0.027613 0
0.989362 0.017156 0
0.984469 0.005796 0
0.974737 -0.001186 0
0.965487 -0.001376 0
0.959748 0.000282 0
0.956901 0.000723 0
0.956016 0.000210 0
0.956038 -0.001224 0
0.956799 -0.002278 0
1.000000 -0.000853 0
1.000234 -0.002655 0
1.000840 -0.004651 0
1.001914 -0.006779 0
1.003327 -0.008992 0
1.005011 -0.011361 0
1.006984 -0.013991 0
1.009275 -0.017001 0
1.011898 -0.020543 0
1.014899 -0.024823 0
1.018334 -0.030094 0
1.022280 -0.036673 0
1.026791 -0.044997 0
1.031989 -0.055689 0
1.038154 -0.069577 0
1.045860 -0.087616 0
1.054865 -0.111787 0
1.069171 -0.143599 0
1.087872 -0.186065 0
1.122249 -0.241514 0
1.175630 -0.302104 0
1.265825 -0.408419 0
1.542579 -0.409583 0
1.634333 -0.247703 0
1.647223 -0.095075 0
1.641209 0.024498 0
1.625730 0.125636 0
1.591816 0.214625 0
1.531917 0.284021 0
1.461492 0.334667 0
1.356898 0.388623 0
1.222003 0.369372 0
1.037301 0.223186 0
0.627344 0.252259 0
0.626032 0.228426 0
0.615830 -0.011927 0
0.384477 -0.166724 0
0.191820 -0.373468 0
0.228946 -0.577308 0
0.428229 -0.570733 0
0.707069 -0.384413 0
0.944239 -0.168602 0
1.107672 0.002545 0
1.206364 0.153799 0
1.273528 0.284097 0
1.312021 0.370212 0
1.301479 0.410658 0
1.251663 0.408554 0
1.160935 0.420928 0
0.993307 0.601589 0
0.891316 0.771602 0
0.948850 0.696366 0
0.965380 0.483005 0
0.882357 0.293983 0
0.676722 0.238577 0
0.437723 0.262274 0
0.299125 0.231552 0
0.293035 0.068770 0
0.372399 -0.163788 0
0.477341 -0.335341 0
0.564772 -0.400771 0
0.628402 -0.408815 0
0.671345 -0.406881 0
0.701977 -0.410226 0
0.730607 -0.415425 0
0.755613 -0.425274 0
0.769923 -0.447963 0
0.775941 -0.475915 0
0.789753 -0.489696 0
0.812839 -0.474557 0
0.842123 -0.427872 0
0.871456 -0.357299 0
0.897877 -0.267519 0
0.920996 -0.158870 0
0.937182 -0.038101 0
0.943982 0.084866 0
0.941189 0.201325 0
0.935376 0.301078 0
0.936044 0.369693 0
0.948718 0.393109 0
0.967701 0.369687 0
0.982344 0.313877 0
0.988741 0.246468 0
0.989644 0.184100 0
0.988498 0.135157 0
0.987841 0.100253 0
0.986811 0.076824 0
0.984222 0.061821 0
0.982755 0.051392 0
0.981914 0.042977 0
0.980608 0.036027 0
0.978378 0.030561 0
0.975252 0.026743 0
0.969587 0.025245 0
0.960592 0.022497 0
0.953026 0.015860 0
0.949487 0.009212 0
0.948842 0.004534 0
0.949957 0.001274 0
0.951494 -0.001572 0
0.952710 -0.003151 0
1.000000 -0.000920 0
1.000134 -0.002967 0
1.000449 -0.005394 0
1.001270 -0.007925 0
1.002407 -0.010388 0
1.003734 -0.012974 0
1.005237 -0.015848 0
1.006924 -0.019111 0
1.008758 -0.022913 0
1.010745 -0.027485 0
1.012924 -0.033083 0
1.015301 -0.039992 0
1.017738 -0.048643 0
1.020132 -0.059762 0
1.022318 -0.074446 0
1.025989 -0.092952 0
1.025505 -0.119749 0
1.034260 -0.155075 0
1.035252 -0.206921 0
1.058678 -0.279215 0
1.077292 -0.372427 0
1.213884 -0.635527 0
1.560175 -0.626839 0
1.489923 -0.279828 0
1.409325 -0.083567 0
1.397287 0.034860 0
1.417513 0.141203 0
1.459015 0.249649 0
1.423143 0.334225 0
1.429715 0.413165 0
1.407419 0.495031 0
1.315125 0.574036 0
1.067513 0.821009 0
0.741481 0.597848 0
0.643158 0.076461 0
0.250965 0.107884 0
0.044559 0.129261 0
-0.133184 -0.250453 0
-0.179559 -0.671971 0
-0.120391 -0.847576 0
0.131927 -0.743180 0
0.475798 -0.451677 0
0.749750 -0.155527 0
0.924012 0.064057 0
1.040176 0.201141 0
1.110530 0.310119 0
1.157014 0.401309 0
1.168816 0.459511 0
1.126370 0.528402 0
1.056246 0.656948 0
1.098722 0.726065 0
1.163153 0.634693 0
1.178571 0.474972 0
1.072831 0.432438 0
0.871341 0.507855 0
0.726310 0.481670 0
0.712838 0.292473 0
0.760195 0.019725 0
0.774193 -0.241223 0
0.747416 -0.394921 0
0.717030 -0.437535 0
0.696210 -0.434764 0
0.695016 -0.429001 0
0.708052 -0.435819 0
0.728693 -0.446389 0
0.755823 -0.446179 0
0.776944 -0.440542 0
0.774625 -0.447206 0
0.748344 -0.463206 0
0.712132 -0.465197 0
0.683924 -0.435679 0
0.671737 -0.373128 0
0.669778 -0.283271 0
0.670882 -0.171911 0
0.670532 -0.047193 0
0.670572 0.081213 0
0.670157 0.200905 0
0.679226 0.296731 0
0.704871 0.354697 0
0.748545 0.366168 0
0.802923 0.335728 0
0.856171 0.280292 0
0.898143 0.219414 0
0.923657 0.166738 0
0.933057 0.127537 0
0.930611 0.100834 0
0.921476 0.083087 0
0.910836 0.070611 0
0.902158 0.060373 0
0.896567 0.050690 0
0.894122 0.041377 0
0.894587 0.032971 0
0.897657 0.025949 0
0.903399 0.020459 0
0.912526 0.015377 0
0.922108 0.009732 0
0.930160 0.004468 0
0.937175 0.000255 0
0.942773 -0.002439 0
0.946512 -0.003974 0
0.948314 -0.004691 0
1.000000 -0.000988 0
1.000094 -0.003106 0
1.000050 -0.005788 0
1.000713 -0.008734 0
1.001478 -0.011452 0
1.002400 -0.014189 0
1.003413 -0.017182 0
1.004530 -0.020523 0
1.005554 -0.024362 0
1.006475 -0.028989 0
1.007406 -0.034652 0
1.008323 -0.041490 0
1.008795 -0.049832 0
1.009828 -0.060275 0
1.005147 -0.075442 0
1.007533 -0.090810 0
0.999245 -0.120066 0
1.002260 -0.153355 0
0.983039 -0.210491 0
0.994840 -0.283563 0
0.945821 -0.457319 0
1.064606 -0.891309 0
0.763338 -0.588768 0
0.000785 0.000000 0
-0.002058 0.000000 0
0.574487 0.018749 0
0.620351 0.063904 0
0.796243 0.208993 0
0.934308 0.313316 0
0.983816 0.350388 0
1.094981 0.503212 0
1.209645 0.709275 0
1.163135 0.796829 0
1.190056 0.676615 0
0.747215 0.718942 0
0.107865 0.586670 0
0.035040 0.217422 0
0.110820 -0.149349 0
0.058547 -0.590101 0
-0.057562 -0.882219 0
-0.087819 -0.980602 0
0.117568 -0.786424 0
0.420309 -0.445667 0
0.674280 -0.136627 0
0.858904 0.097579 0
0.964739 0.253374 0
1.029597 0.352372 0
1.072149 0.439199 0
1.097383 0.533498 0
1.121134 0.629237 0
1.188692 0.664696 0
1.234045 0.616517 0
1.200126 0.573327 0
1.075136 0.601215 0
1.012647 0.585099 0
1.077827 0.420778 0
1.148885 0.197668 0
1.070652 0.007416 0
0.866039 -0.151008 0
0.727865 -0.278177 0
0.625967 -0.349564 0
0.562285 -0.386801 0
0.561322 -0.418723 0
0.608452 -0.443902 0
0.665310 -0.463196 0
0.710074 -0.473526 0
0.741385 -0.466764 0
0.755353 -0.447315 0
0.742634 -0.427204 0
0.700522 -0.410137 0
0.642361 -0.387477 0
0.588248 -0.343153 0
0.549455 -0.266664 0
0.524600 -0.159625 0
0.505262 -0.037791 0
0.496403 0.085242 0
0.505553 0.192671 0
0.541639 0.266365 0
0.604543 0.300374 0
0.685456 0.295057 0
0.767338 0.262063 0
0.832687 0.218658 0
0.871830 0.178983 0
0.885574 0.149189 0
0.881793 0.128205 0
0.869983 0.111836 0
0.857511 0.096601 0
0.848712 0.081141 0
0.845173 0.065663 0
0.846547 0.051015 0
0.851788 0.038010 0
0.859957 0.027029 0
0.870438 0.017934 0
0.882768 0.010378 0
0.896475 0.003791 0
0.910106 -0.001771 0
0.921964 -0.005853 0
0.932039 -0.008077 0
0.938730 -0.008061 0
0.944023 -0.007110 0
0.946360 -0.006666 0
1.000000 -0.001016 0
0.999896 -0.003020 0
0.999931 -0.006012 0
1.000209 -0.009349 0
1.000512 -0.012073 0
1.001014 -0.014908 0
1.001515 -0.017979 0
1.002283 -0.021252 0
1.002521 -0.024857 0
1.002259 -0.029338 0
1.003037 -0.034933 0
1.000867 -0.041384 0
1.001785 -0.050152 0
0.997740 -0.056120 0
0.997343 -0.072157 0
0.986742 -0.087056 0
0.986037 -0.114484 0
0.963077 -0.138877 0
0.955354 -0.199507 0
0.899165 -0.242006 0
0.866835 -0.442201 0
0.650747 -0.549913 0
0.000000 -0.003004 0
-0.654828 0.214847 0
-0.582424 0.000000 0
0.000000 0.000000 0
0.021431 -0.077874 0
0.063253 -0.064311 0
0.083057 0.146649 0
0.500514 0.252490 0
0.680144 0.269201 0
0.878691 0.505879 0
0.876815 0.840598 0
0.721551 1.013769 0
0.363489 1.158651 0
0.309833 0.820057 0
0.228419 0.126305 0
0.345866 -0.273959 0
0.395977 -0.503589 0
0.354332 -0.701210 0
0.180173 -0.918310 0
0.100999 -0.959803 0
0.249427 -0.712238 0
0.475744 -0.374538 0
0.689343 -0.089317 0
0.858857 0.139427 0
0.960237 0.293900 0
1.014745 0.391726 0
1.068300 0.479417 0
1.134822 0.565640 0
1.209835 0.613155 0
1.251649 0.623260 0
1.241914 0.633881 0
1.235380 0.619918 0
1.307597 0.505167 0
1.375341 0.345432 0
1.317062 0.299649 0
1.132049 0.302573 0
0.932022 0.101566 0
0.731576 -0.154848 0
0.555342 -0.271955 0
0.473386 -0.370118 0
0.466840 -0.475167 0
0.518502 -0.539807 0
0.601305 -0.548011 0
0.680085 -0.522255 0
0.733992 -0.485822 0
0.758727 -0.448455 0
0.754700 -0.408374 0
0.724109 -0.364924 0
0.670938 -0.323404 0
0.604182 -0.280223 0
0.539498 -0.219624 0
0.491448 -0.127718 0
0.467752 -0.018995 0
0.470742 0.080923 0
0.507268 0.155668 0
0.572127 0.197741 0
0.653854 0.210881 0
0.733768 0.203375 0
0.794120 0.188498 0
0.826636 0.175801 0
0.834340 0.166528 0
0.826997 0.156776 0
0.814948 0.143129 0
0.805192 0.125119 0
0.800747 0.104360 0
0.801973 0.082951 0
0.808101 0.062539 0
0.818205 0.044078 0
0.831493 0.027971 0
0.847256 0.014323 0
0.864520 0.003141 0
0.882016 -0.005574 0
0.898493 -0.011958 0
0.912715 -0.015754 0
0.924728 -0.017462 0
0.934922 -0.016507 0
0.942855 -0.014419 0
0.951081 -0.011600 0
0.954023 -0.009254 0
1.000000 -0.000886 0
0.999777 -0.003039 0
0.999913 -0.006100 0
0.999795 -0.009312 0
0.999772 -0.012257 0
0.999903 -0.015193 0
0.999838 -0.018451 0
1.000091 -0.021528 0
0.999605 -0.024338 0
0.999175 -0.029506 0
0.998198 -0.033262 0
0.996849 -0.040240 0
0.994772 -0.046708 0
0.989035 -0.055839 0
0.988514 -0.064451 0
0.974148 -0.079510 0
0.969961 -0.096408 0
0.936371 -0.122680 0
0.926114 -0.146586 0
0.837766 -0.195052 0
0.804375 -0.208908 0
0.465876 -0.111745 0
0.327715 -0.025289 0
0.000000 0.000000 0
0.000000 0.000000 0
0.000000 0.000000 0
0.000000 0.000000 0
-0.081207 0.144031 0
-0.056075 -0.123947 0
0.119526 -0.246699 0
0.326213 0.125032 0
0.349661 0.512602 0
0.398248 0.953969 0
0.278101 1.189941 0
0.113866 1.130659 0
0.308311 0.721737 0
0.405931 0.181389 0
0.432572 -0.316906 0
0.448504 -0.598566 0
0.527385 -0.666415 0
0.545163 -0.727268 0
0.406696 -0.855676 0
0.323766 -0.820412 0
0.423371 -0.576542 0
0.598208 -0.285533 0
0.771587 -0.017519 0
0.900169 0.196485 0
0.979668 0.331136 0
1.038189 0.413423 0
1.112777 0.487704 0
1.190487 0.547870 0
1.249218 0.584440 0
1.293175 0.589598 0
1.353108 0.535534 0
1.406329 0.445140 0
1.367623 0.411315 0
1.241835 0.440961 0
1.164576 0.392457 0
1.160992 0.249466 0
1.073146 0.098504 0
0.979924 -0.091372 0
0.909456 -0.298298 0