# vtk DataFile Version 2.0
generated by CFD-lab course output (written by Tobias Neckel) 
ASCII

DATASET STRUCTURED_GRID
DIMENSIONS  101 21 1 
POINTS 2121 float

0.000000 0.000000 0
0.100000 0.000000 0
0.200000 0.000000 0
0.300000 0.000000 0
0.400000 0.000000 0
0.500000 0.000000 0
0.600000 0.000000 0
0.700000 0.000000 0
0.800000 0.000000 0
0.900000 0.000000 0
1.000000 0.000000 0
1.100000 0.000000 0
1.200000 0.000000 0
1.300000 0.000000 0
1.400000 0.000000 0
1.500000 0.000000 0
1.600000 0.000000 0
1.700000 0.000000 0
1.800000 0.000000 0
1.900000 0.000000 0
2.000000 0.000000 0
2.100000 0.000000 0
2.200000 0.000000 0
2.300000 0.000000 0
2.400000 0.000000 0
2.500000 0.000000 0
2.600000 0.000000 0
2.700000 0.000000 0
2.800000 0.000000 0
2.900000 0.000000 0
3.000000 0.000000 0
3.100000 0.000000 0
3.200000 0.000000 0
3.300000 0.000000 0
3.400000 0.000000 0
3.500000 0.000000 0
3.600000 0.000000 0
3.700000 0.000000 0
3.800000 0.000000 0
3.900000 0.000000 0
4.000000 0.000000 0
4.100000 0.000000 0
4.200000 0.000000 0
4.300000 0.000000 0
4.400000 0.000000 0
4.500000 0.000000 0
4.600000 0.000000 0
4.700000 0.000000 0
4.800000 0.000000 0
4.900000 0.000000 0
5.000000 0.000000 0
5.100000 0.000000 0
5.200000 0.000000 0
5.300000 0.000000 0
5.400000 0.000000 0
5.500000 0.000000 0
5.600000 0.000000 0
5.700000 0.000000 0
5.800000 0.000000 0
5.900000 0.000000 0
6.000000 0.000000 0
6.100000 0.000000 0
6.200000 0.000000 0
6.300000 0.000000 0
6.400000 0.000000 0
6.500000 0.000000 0
6.600000 0.000000 0
6.700000 0.000000 0
6.800000 0.000000 0
6.900000 0.000000 0
7.000000 0.000000 0
7.100000 0.000000 0
7.200000 0.000000 0
7.300000 0.000000 0
7.400000 0.000000 0
7.500000 0.000000 0
7.600000 0.000000 0
7.700000 0.000000 0
7.800000 0.000000 0
7.900000 0.000000 0
8.000000 0.000000 0
8.100000 0.000000 0
8.200000 0.000000 0
8.300000 0.000000 0
8.400000 0.000000 0
8.500000 0.000000 0
8.600000 0.000000 0
8.700000 0.000000 0
8.800000 0.000000 0
8.900000 0.000000 0
9.000000 0.000000 0
9.100000 0.000000 0
9.200000 0.000000 0
9.300000 0.000000 0
9.400000 0.000000 0
9.500000 0.000000 0
9.600000 0.000000 0
9.700000 0.000000 0
9.800000 0.000000 0
9.900000 0.000000 0
10.000000 0.000000 0
0.000000 0.100000 0
0.100000 0.100000 0
0.200000 0.100000 0
0.300000 0.100000 0
0.400000 0.100000 0
0.500000 0.100000 0
0.600000 0.100000 0
0.700000 0.100000 0
0.800000 0.100000 0
0.900000 0.100000 0
1.000000 0.100000 0
1.100000 0.100000 0
1.200000 0.100000 0
1.300000 0.100000 0
1.400000 0.100000 0
1.500000 0.100000 0
1.600000 0.100000 0
1.700000 0.100000 0
1.800000 0.100000 0
1.900000 0.100000 0
2.000000 0.100000 0
2.100000 0.100000 0
2.200000 0.100000 0
2.300000 0.100000 0
2.400000 0.100000 0
2.500000 0.100000 0
2.600000 0.100000 0
2.700000 0.100000 0
2.800000 0.100000 0
2.900000 0.100000 0
3.000000 0.100000 0
3.100000 0.100000 0
3.200000 0.100000 0
3.300000 0.100000 0
3.400000 0.100000 0
3.500000 0.100000 0
3.600000 0.100000 0
3.700000 0.100000 0
3.800000 0.100000 0
3.900000 0.100000 0
4.000000 0.100000 0
4.100000 0.100000 0
4.200000 0.100000 0
4.300000 0.100000 0
4.400000 0.100000 0
4.500000 0.100000 0
4.600000 0.100000 0
4.700000 0.100000 0
4.800000 0.100000 0
4.900000 0.100000 0
5.000000 0.100000 0
5.100000 0.100000 0
5.200000 0.100000 0
5.300000 0.100000 0
5.400000 0.100000 0
5.500000 0.100000 0
5.600000 0.100000 0
5.700000 0.100000 0
5.800000 0.100000 0
5.900000 0.100000 0
6.000000 0.100000 0
6.100000 0.100000 0
6.200000 0.100000 0
6.300000 0.100000 0
6.400000 0.100000 0
6.500000 0.100000 0
6.600000 0.100000 0
6.700000 0.100000 0
6.800000 0.100000 0
6.900000 0.100000 0
7.000000 0.100000 0
7.100000 0.100000 0
7.200000 0.100000 0
7.300000 0.100000 0
7.400000 0.100000 0
7.500000 0.100000 0
7.600000 0.100000 0
7.700000 0.100000 0
7.800000 0.100000 0
7.900000 0.100000 0
8.000000 0.100000 0
8.100000 0.100000 0
8.200000 0.100000 0
8.300000 0.100000 0
8.400000 0.100000 0
8.500000 0.100000 0
8.600000 0.100000 0
8.700000 0.100000 0
8.800000 0.100000 0
8.900000 0.100000 0
9.000000 0.100000 0
9.100000 0.100000 0
9.200000 0.100000 0
9.300000 0.100000 0
9.400000 0.100000 0
9.500000 0.100000 0
9.600000 0.100000 0
9.700000 0.100000 0
9.800000 0.100000 0
9.900000 0.100000 0
10.000000 0.100000 0
0.000000 0.200000 0
0.100000 0.200000 0
0.200000 0.200000 0
0.300000 0.200000 0
0.400000 0.200000 0
0.500000 0.200000 0
0.600000 0.200000 0
0.700000 0.200000 0
0.800000 0.200000 0
0.900000 0.200000 0
1.000000 0.200000 0
1.100000 0.200000 0
1.200000 0.200000 0
1.300000 0.200000 0
1.400000 0.200000 0
1.500000 0.200000 0
1.600000 0.200000 0
1.700000 0.200000 0
1.800000 0.200000 0
1.900000 0.200000 0
2.000000 0.200000 0
2.100000 0.200000 0
2.200000 0.200000 0
2.300000 0.200000 0
2.400000 0.200000 0
2.500000 0.200000 0
2.600000 0.200000 0
2.700000 0.200000 0
2.800000 0.200000 0
2.900000 0.200000 0
3.000000 0.200000 0
3.100000 0.200000 0
3.200000 0.200000 0
3.300000 0.200000 0
3.400000 0.200000 0
3.500000 0.200000 0
3.600000 0.200000 0
3.700000 0.200000 0
3.800000 0.200000 0
3.900000 0.200000 0
4.000000 0.200000 0
4.100000 0.200000 0
4.200000 0.200000 0
4.300000 0.200000 0
4.400000 0.200000 0
4.500000 0.200000 0
4.600000 0.200000 0
4.700000 0.200000 0
4.800000 0.200000 0
4.900000 0.200000 0
5.000000 0.200000 0
5.100000 0.200000 0
5.200000 0.200000 0
5.300000 0.200000 0
5.400000 0.200000 0
5.500000 0.200000 0
5.600000 0.200000 0
5.700000 0.200000 0
5.800000 0.200000 0
5.900000 0.200000 0
6.000000 0.200000 0
6.100000 0.200000 0
6.200000 0.200000 0
6.300000 0.200000 0
6.400000 0.200000 0
6.500000 0.200000 0
6.600000 0.200000 0
6.700000 0.200000 0
6.800000 0.200000 0
6.900000 0.200000 0
7.000000 0.200000 0
7.100000 0.200000 0
7.200000 0.200000 0
7.300000 0.200000 0
7.400000 0.200000 0
7.500000 0.200000 0
7.600000 0.200000 0
7.700000 0.200000 0
7.800000 0.200000 0
7.900000 0.200000 0
8.000000 0.200000 0
8.100000 0.200000 0
8.200000 0.200000 0
8.300000 0.200000 0
8.400000 0.200000 0
8.500000 0.200000 0
8.600000 0.200000 0
8.700000 0.200000 0
8.800000 0.200000 0
8.900000 0.200000 0
9.000000 0.200000 0
9.100000 0.200000 0
9.200000 0.200000 0
9.300000 0.200000 0
9.400000 0.200000 0
9.500000 0.200000 0
9.600000 0.200000 0
9.700000 0.200000 0
9.800000 0.200000 0
9.900000 0.200000 0
10.000000 0.200000 0
0.000000 0.300000 0
0.100000 0.300000 0
0.200000 0.300000 0
0.300000 0.300000 0
0.400000 0.300000 0
0.500000 0.300000 0
0.600000 0.300000 0
0.700000 0.300000 0
0.800000 0.300000 0
0.900000 0.300000 0
1.000000 0.300000 0
1.100000 0.300000 0
1.200000 0.300000 0
1.300000 0.300000 0
1.400000 0.300000 0
1.500000 0.300000 0
1.600000 0.300000 0
1.700000 0.300000 0
1.800000 0.300000 0
1.900000 0.300000 0
2.000000 0.300000 0
2.100000 0.300000 0
2.200000 0.300000 0
2.300000 0.300000 0
2.400000 0.300000 0
2.500000 0.300000 0
2.600000 0.300000 0
2.700000 0.300000 0
2.800000 0.300000 0
2.900000 0.300000 0
3.000000 0.300000 0
3.100000 0.300000 0
3.200000 0.300000 0
3.300000 0.300000 0
3.400000 0.300000 0
3.500000 0.300000 0
3.600000 0.300000 0
3.700000 0.300000 0
3.800000 0.300000 0
3.900000 0.300000 0
4.000000 0.300000 0
4.100000 0.300000 0
4.200000 0.300000 0
4.300000 0.300000 0
4.400000 0.300000 0
4.500000 0.300000 0
4.600000 0.300000 0
4.700000 0.300000 0
4.800000 0.300000 0
4.900000 0.300000 0
5.000000 0.300000 0
5.100000 0.300000 0
5.200000 0.300000 0
5.300000 0.300000 0
5.400000 0.300000 0
5.500000 0.300000 0
5.600000 0.300000 0
5.700000 0.300000 0
5.800000 0.300000 0
5.900000 0.300000 0
6.000000 0.300000 0
6.100000 0.300000 0
6.200000 0.300000 0
6.300000 0.300000 0
6.400000 0.300000 0
6.500000 0.300000 0
6.600000 0.300000 0
6.700000 0.300000 0
6.800000 0.300000 0
6.900000 0.300000 0
7.000000 0.300000 0
7.100000 0.300000 0
7.200000 0.300000 0
7.300000 0.300000 0
7.400000 0.300000 0
7.500000 0.300000 0
7.600000 0.300000 0
7.700000 0.300000 0
7.800000 0.300000 0
7.900000 0.300000 0
8.000000 0.300000 0
8.100000 0.300000 0
8.200000 0.300000 0
8.300000 0.300000 0
8.400000 0.300000 0
8.500000 0.300000 0
8.600000 0.300000 0
8.700000 0.300000 0
8.800000 0.300000 0
8.900000 0.300000 0
9.000000 0.300000 0
9.100000 0.300000 0
9.200000 0.300000 0
9.300000 0.300000 0
9.400000 0.300000 0
9.500000 0.300000 0
9.600000 0.300000 0
9.700000 0.300000 0
9.800000 0.300000 0
9.900000 0.300000 0
10.000000 0.300000 0
0.000000 0.400000 0
0.100000 0.400000 0
0.200000 0.400000 0
0.300000 0.400000 0
0.400000 0.400000 0
0.500000 0.400000 0
0.600000 0.400000 0
0.700000 0.400000 0
0.800000 0.400000 0
0.900000 0.400000 0
1.000000 0.400000 0
1.100000 0.400000 0
1.200000 0.400000 0
1.300000 0.400000 0
1.400000 0.400000 0
1.500000 0.400000 0
1.600000 0.400000 0
1.700000 0.400000 0
1.800000 0.400000 0
1.900000 0.400000 0
2.000000 0.400000 0
2.100000 0.400000 0
2.200000 0.400000 0
2.300000 0.400000 0
2.400000 0.400000 0
2.500000 0.400000 0
2.600000 0.400000 0
2.700000 0.400000 0
2.800000 0.400000 0
2.900000 0.400000 0
3.000000 0.400000 0
3.100000 0.400000 0
3.200000 0.400000 0
3.300000 0.400000 0
3.400000 0.400000 0
3.500000 0.400000 0
3.600000 0.400000 0
3.700000 0.400000 0
3.800000 0.400000 0
3.900000 0.400000 0
4.000000 0.400000 0
4.100000 0.400000 0
4.200000 0.400000 0
4.300000 0.400000 0
4.400000 0.400000 0
4.500000 0.400000 0
4.600000 0.400000 0
4.700000 0.400000 0
4.800000 0.400000 0
4.900000 0.400000 0
5.000000 0.400000 0
5.100000 0.400000 0
5.200000 0.400000 0
5.300000 0.400000 0
5.400000 0.400000 0
5.500000 0.400000 0
5.600000 0.400000 0
5.700000 0.400000 0
5.800000 0.400000 0
5.900000 0.400000 0
6.000000 0.400000 0
6.100000 0.400000 0
6.200000 0.400000 0
6.300000 0.400000 0
6.400000 0.400000 0
6.500000 0.400000 0
6.600000 0.400000 0
6.700000 0.400000 0
6.800000 0.400000 0
6.900000 0.400000 0
7.000000 0.400000 0
7.100000 0.400000 0
7.200000 0.400000 0
7.300000 0.400000 0
7.400000 0.400000 0
7.500000 0.400000 0
7.600000 0.400000 0
7.700000 0.400000 0
7.800000 0.400000 0
7.900000 0.400000 0
8.000000 0.400000 0
8.100000 0.400000 0
8.200000 0.400000 0
8.300000 0.400000 0
8.400000 0.400000 0
8.500000 0.400000 0
8.600000 0.400000 0
[...]
POINT_DATA 2121 

VECTORS velocity float
0.500000 0.000000 0
-0.000005 0.000000 0
-0.000014 0.000000 0
-0.000029 0.000000 0
-0.000049 0.000000 0
-0.000083 0.000000 0
-0.000096 0.000000 0
-0.000109 0.000000 0
-0.000135 0.000000 0
-0.000164 0.000000 0
-0.000190 0.000000 0
-0.000216 0.000000 0
-0.000242 0.000000 0
-0.000268 0.000000 0
-0.000296 0.000000 0
-0.000326 0.000000 0
-0.000360 0.000000 0
-0.000398 0.000000 0
-0.000441 0.000000 0
-0.000489 0.000000 0
-0.000536 0.000000 0
-0.000573 0.000000 0
-0.000586 0.000000 0
-0.000549 0.000000 0
-0.000440 0.000000 0
-0.000212 0.000000 0
0.000169 0.000000 0
0.000733 0.000000 0
0.001490 0.000000 0
0.002241 0.000000 0
0.002882 0.000000 0
0.003413 0.000000 0
0.003830 0.000000 0
0.004041 0.000000 0
0.003910 0.000000 0
0.003329 0.000000 0
0.002261 0.000000 0
0.000750 0.000000 0
-0.001349 0.000000 0
-0.004113 0.000000 0
-0.006596 0.000000 0
-0.008067 0.000000 0
-0.008413 0.000000 0
-0.007250 0.000000 0
-0.004933 0.000000 0
-0.002156 0.000000 0
0.000639 0.000000 0
0.003143 0.000000 0
0.005140 0.000000 0
0.006546 0.000000 0
0.007319 0.000000 0
0.007601 0.000000 0
0.007430 0.000000 0
0.005456 0.000000 0
0.000160 0.000000 0
-0.004415 0.000000 0
-0.020240 0.000000 0
-0.020090 0.000000 0
0.017204 0.000000 0
0.033880 0.000000 0
0.025350 0.000000 0
0.012462 0.000000 0
0.004234 0.000000 0
-0.001170 0.000000 0
-0.005022 0.000000 0
-0.006840 0.000000 0
-0.007479 0.000000 0
-0.008384 0.000000 0
-0.009185 0.000000 0
-0.009000 0.000000 0
-0.007851 0.000000 0
-0.005878 0.000000 0
-0.003302 0.000000 0
0.000532 0.000000 0
0.008880 0.000000 0
0.025705 0.000000 0
0.026765 0.000000 0
0.008655 0.000000 0
-0.004533 0.000000 0
-0.002318 0.000000 0
0.001919 0.000000 0
0.004801 0.000000 0
0.005781 0.000000 0
0.005447 0.000000 0
0.004552 0.000000 0
0.003922 0.000000 0
0.003526 0.000000 0
0.003000 0.000000 0
0.002161 0.000000 0
0.001121 0.000000 0
-0.000096 0.000000 0
-0.001491 0.000000 0
-0.002936 0.000000 0
-0.004296 0.000000 0
-0.005586 0.000000 0
-0.006885 0.000000 0
-0.008203 0.000000 0
-0.009229 0.000000 0
-0.009458 0.000000 0
-0.009096 0.000000 0
-0.009212 0.000000 0
1.000000 0.000341 0
1.000007 0.000717 0
1.000180 0.000641 0
1.000659 0.000329 0
1.001575 -0.000214 0
1.003066 -0.001028 0
1.005252 -0.001805 0
1.008204 -0.002570 0
1.012076 -0.003616 0
1.017067 -0.004911 0
1.023415 -0.006484 0
1.031421 -0.008413 0
1.041473 -0.010799 0
1.054069 -0.013765 0
1.069838 -0.017441 0
1.089560 -0.021957 0
1.114155 -0.027401 0
1.144642 -0.033748 0
1.182013 -0.040744 0
1.226953 -0.047745 0
1.279355 -0.053545 0
1.337436 -0.056481 0
1.397708 -0.054492 0
1.452761 -0.047008 0
1.495683 -0.035392 0
1.524895 -0.022323 0
1.541250 -0.009834 0
1.546029 0.002477 0
1.539385 0.015438 0
1.520278 0.028251 0
1.487791 0.039973 0
1.443492 0.050569 0
1.388773 0.059423 0
1.325805 0.065409 0
1.258356 0.067174 0
1.191221 0.063740 0
1.129515 0.054703 0
1.077937 0.039468 0
1.042782 0.016895 0
1.034046 -0.012332 0
1.060459 -0.042799 0
1.118992 -0.066915 0
1.198575 -0.079385 0
1.286343 -0.076997 0
1.363217 -0.060646 0
1.416785 -0.035769 0
1.441815 -0.008069 0
1.438253 0.018081 0
1.410356 0.039987 0
1.363957 0.056315 0
1.305168 0.066593 0
1.238978 0.071049 0
1.167822 0.066852 0
1.105616 0.041845 0
1.102116 -0.001734 0
1.160749 -0.051936 0
1.140280 -0.132554 0
1.038471 -0.112286 0
0.929377 0.072711 0
0.832632 0.213424 0
0.775646 0.188038 0
0.763661 0.084322 0
0.775371 0.009092 0
0.792936 -0.037401 0
0.833690 -0.064899 0
0.894220 -0.072814 0
0.972164 -0.074706 0
1.047602 -0.077303 0
1.119593 -0.075885 0
1.185256 -0.067713 0
1.237974 -0.052166 0
1.271568 -0.030894 0
1.281706 -0.005701 0
1.263920 0.028885 0
1.203054 0.095981 0
1.086246 0.210958 0
0.951973 0.232246 0
0.874206 0.101540 0
0.817877 -0.008125 0
0.748458 -0.019397 0
0.685678 0.012947 0
0.625035 0.039075 0
0.564300 0.050147 0
0.513042 0.048921 0
0.470564 0.042139 0
0.432466 0.037333 0
0.396033 0.036287 0
0.359154 0.034488 0
0.325719 0.029551 0
0.298842 0.023160 0
0.279749 0.014690 0
0.269644 0.003290 0
0.268562 -0.008253 0
0.278894 -0.017636 0
0.298377 -0.026212 0
0.325991 -0.035636 0
0.360554 -0.045593 0
0.404246 -0.052313 0
0.453012 -0.049733 0
0.514143 -0.031817 0
0.532709 -0.018287 0
1.000000 -0.000012 0
1.000588 -0.000187 0
1.001580 -0.000657 0
1.002973 -0.001400 0
1.004822 -0.002411 0
1.007141 -0.003681 0
1.009954 -0.005141 0
1.013584 -0.006827 0
1.018087 -0.008866 0
1.023600 -0.011341 0
1.030332 -0.014356 0
1.038555 -0.018061 0
1.048615 -0.022651 0
1.060970 -0.028369 0
1.076221 -0.035497 0
1.095147 -0.044324 0
1.118732 -0.055090 0
1.148181 -0.067867 0
1.184904 -0.082322 0
1.230341 -0.097354 0
1.285527 -0.110497 0
1.349034 -0.118367 0
1.420311 -0.115342 0
1.482366 -0.097992 0
1.527560 -0.072151 0
1.556347 -0.045586 0
1.571829 -0.021152 0
1.577558 0.001848 0
1.574158 0.025735 0
1.559695 0.051579 0
1.531118 0.076771 0
1.488005 0.099004 0
1.432800 0.117675 0
1.367316 0.130405 0
1.295048 0.134574 0
1.221417 0.128832 0
1.153993 0.113276 0
1.093699 0.086725 0
1.043438 0.043884 0
1.019241 -0.017685 0
1.043058 -0.084954 0
1.107118 -0.138123 0
1.192271 -0.167358 0
1.294681 -0.164650 0
1.385689 -0.130450 0
1.451503 -0.078606 0
1.487641 -0.021477 0
1.491079 0.031450 0
1.466071 0.074287 0
1.421922 0.105180 0
1.367328 0.124972 0
1.306564 0.137338 0
1.244201 0.133354 0
1.179942 0.065698 0
1.086360 -0.055140 0
0.982058 -0.038171 0
0.819557 0.122271 0
0.576433 0.210896 0
0.455487 0.205833 0
0.524730 0.153725 0
0.713262 0.068964 0
0.858979 0.000268 0
0.937573 -0.029281 0
0.987537 -0.058326 0
1.018806 -0.101292 0
1.038613 -0.138481 0
1.059133 -0.153391 0
1.083463 -0.147438 0
1.114918 -0.137662 0
1.149576 -0.118390 0
1.175827 -0.086322 0
1.184157 -0.043741 0
1.167793 0.007640 0
1.139221 0.078644 0
1.096821 0.177666 0
1.044815 0.251075 0
1.019234 0.212036 0
0.980186 0.134091 0
0.924996 0.125745 0
0.835914 0.132198 0
0.708626 0.123424 0
0.583358 0.121380 0
0.500417 0.111997 0
0.456996 0.093742 0
0.429610 0.080583 0
0.402524 0.074540 0
0.373397 0.073323 0
0.344494 0.070327 0
0.318836 0.060327 0
0.300718 0.045986 0
0.290157 0.029216 0
0.284000 0.011206 0
0.282211 -0.009230 0
0.286094 -0.029794 0
0.296924 -0.047074 0
0.310536 -0.062153 0
0.325704 -0.078232 0
0.344647 -0.092435 0
0.358825 -0.109873 0
0.413736 -0.079673 0
0.429333 -0.037435 0
1.000000 -0.000250 0
1.000406 -0.000868 0
1.001198 -0.001746 0
1.002382 -0.002914 0
1.003993 -0.004383 0
1.006067 -0.006159 0
1.008661 -0.008248 0
1.011910 -0.010703 0
1.015913 -0.013631 0
1.020793 -0.017157 0
1.026717 -0.021439 0
1.033902 -0.026696 0
1.042633 -0.033216 0
1.053303 -0.041372 0
1.066461 -0.051620 0
1.082874 -0.064471 0
1.103590 -0.080439 0
1.130036 -0.099924 0
1.164188 -0.122909 0
1.208923 -0.148374 0
1.267389 -0.172244 0
1.338770 -0.191272 0
1.433463 -0.187832 0
1.508896 -0.154264 0
1.556775 -0.109380 0
1.581568 -0.066599 0
1.591667 -0.031052 0
1.596697 0.000141 0
1.597141 0.033296 0
1.586724 0.071286 0
1.562253 0.111658 0
1.519284 0.148882 0
1.460406 0.180108 0
1.386237 0.203157 0
1.304081 0.213070 0
1.225033 0.204791 0
1.146479 0.182417 0
1.073374 0.150020 0
0.969352 0.091350 0
0.912343 -0.011956 0
0.931728 -0.130679 0
0.980401 -0.216132 0
1.055359 -0.266952 0
1.162546 -0.270418 0
1.273564 -0.217472 0
1.364470 -0.137724 0
1.431426 -0.047648 0
1.464572 0.039647 0
1.463390 0.109141 0
1.431127 0.155054 0
1.375064 0.181947 0
1.307751 0.194173 0
1.242868 0.193470 0
1.172805 0.199684 0
1.031137 0.196148 0
0.758845 0.214865 0
0.566154 0.273069 0
0.528335 0.251781 0
0.607005 0.124411 0
0.688777 -0.044353 0
0.829846 -0.146213 0
0.935392 -0.139992 0
0.976168 -0.119469 0
1.001426 -0.118638 0
1.014259 -0.115979 0
1.023725 -0.113144 0
1.029344 -0.119560 0
1.042317 -0.133091 0
1.058709 -0.142001 0
1.076224 -0.128627 0
1.088330 -0.086749 0
1.088797 -0.022863 0
1.077097 0.039232 0
1.023842 0.099854 0
0.943796 0.190385 0
0.918502 0.288544 0
0.959127 0.296874 0
0.948917 0.195778 0
0.847470 0.136148 0
0.696101 0.196974 0
0.551374 0.265505 0
0.466751 0.247287 0
0.445839 0.176512 0
0.454476 0.119731 0
0.466217 0.096615 0
0.470828 0.093551 0
0.466519 0.094322 0
0.451519 0.089056 0
0.433633 0.073335 0
0.426920 0.051846 0
0.427778 0.031415 0
0.431039 0.011243 0
0.438894 -0.010339 0
0.454713 -0.032341 0
0.481265 -0.050646 0
0.511702 -0.064407 0
0.533821 -0.079696 0
0.540805 -0.085427 0
0.502555 -0.118814 0
0.466440 -0.102317 0
0.470732 -0.050070 0
1.000000 -0.000422 0
1.000280 -0.001389 0
1.000886 -0.002633 0
1.001849 -0.004195 0
1.003204 -0.006096 0
1.004987 -0.008348 0
1.007230 -0.010984 0
1.009998 -0.014079 0
1.013370 -0.017749 0
1.017443 -0.022146 0
1.022333 -0.027465 0
1.028189 -0.033977 0
1.035206 -0.042054 0
1.043669 -0.052199 0
1.054014 -0.065070 0
1.066945 -0.081455 0
1.083477 -0.102256 0
1.105106 -0.128469 0
1.133937 -0.161213 0
1.175669 -0.200561 0
1.235398 -0.240350 0
1.315319 -0.284448 0
1.465213 -0.285474 0
1.560597 -0.221312 0
1.604700 -0.144830 0
1.617529 -0.080484 0
1.612337 -0.036288 0
1.614422 -0.003633 0
1.625109 0.035702 0
1.623210 0.086461 0
1.607303 0.144206 0
1.569282 0.200847 0
1.498489 0.250717 0
1.405793 0.286726 0
1.302510 0.295774 0
1.166166 0.286430 0
1.097367 0.264932 0
1.113810 0.263850 0
1.021050 0.204911 0
0.940774 0.019935 0
0.838151 -0.153015 0
0.690257 -0.261757 0
0.630854 -0.349507 0
0.713737 -0.382859 0
0.889817 -0.332378 0
1.071517 -0.236472 0
1.196699 -0.121582 0
1.269758 -0.000517 0
1.324747 0.107729 0
1.350938 0.193503 0
1.339786 0.248344 0
1.297944 0.269531 0
1.234983 0.268297 0
1.157252 0.277427 0
1.069297 0.358817 0
0.930521 0.426809 0
0.801543 0.352779 0
0.749858 0.170043 0
0.914863 0.045388 0
0.977066 -0.069119 0
0.774980 -0.177653 0
0.589104 -0.146058 0
0.521527 -0.095319 0
0.507171 -0.096420 0
0.523727 -0.123594 0
0.570590 -0.153570 0
0.642968 -0.171987 0
0.721746 -0.176806 0
0.782214 -0.171571 0
0.821698 -0.148014 0
0.853846 -0.098898 0
0.886916 -0.032510 0
0.904246 0.072592 0
0.870961 0.211943 0
0.827697 0.283005 0
0.844062 0.235743 0
0.883473 0.181619 0
0.822624 0.245748 0
0.638330 0.378562 0
0.478682 0.428295 0
0.460459 0.352775 0
0.551516 0.226918 0
0.653950 0.124275 0
0.703640 0.073367 0
0.698070 0.064235 0
0.651338 0.074243 0
0.584152 0.092638 0
0.522835 0.103219 0
0.488729 0.084931 0
0.474748 0.051847 0
0.461517 0.025103 0
0.447613 0.000097 0
0.445163 -0.032896 0
0.468020 -0.072157 0
0.513118 -0.104055 0
0.576125 -0.114701 0
0.643146 -0.107327 0
0.706323 -0.061161 0
0.777625 -0.035501 0
0.751687 -0.047842 0
0.756503 -0.046623 0
1.000000 -0.000533 0
1.000149 -0.001757 0
1.000558 -0.003315 0
1.001262 -0.005232 0
1.002335 -0.007521 0
1.003820 -0.010185 0
1.005667 -0.013259 0
1.007875 -0.016842 0
1.010510 -0.021075 0
1.013641 -0.026120 0
1.017327 -0.032186 0
1.021631 -0.039570 0
1.026621 -0.048697 0
1.032407 -0.060181 0
1.039203 -0.074898 0
1.047614 -0.093937 0
1.058452 -0.118604 0
1.073086 -0.150387 0
1.091154 -0.193476 0
1.125789 -0.249840 0
1.175774 -0.311899 0
1.265366 -0.421092 0
1.534988 -0.433116 0
1.617285 -0.293759 0
1.622602 -0.166320 0
1.609961 -0.074243 0
1.566906 -0.027952 0
1.557582 -0.012637 0
1.601035 0.024502 0
1.618252 0.089086 0
1.631972 0.165581 0
1.635494 0.257691 0
1.591503 0.343592 0
1.487102 0.399132 0
1.327884 0.452692 0
1.149456 0.409930 0
1.001856 0.234769 0
0.821357 0.226333 0
0.843660 0.264382 0
0.749216 0.170940 0
0.444729 0.119834 0
0.203020 -0.008839 0
0.110338 -0.290435 0
0.153626 -0.529385 0
0.328867 -0.575256 0
0.591593 -0.444610 0
0.815253 -0.245893 0
0.979535 -0.088404 0
1.088058 0.027957 0
1.152424 0.140013 0
1.199051 0.234938 0
1.222627 0.298972 0
1.209045 0.334159 0
1.160052 0.365368 0
1.095976 0.422876 0
1.075205 0.482616 0
1.042979 0.453730 0
0.982320 0.138458 0
0.899833 -0.102800 0
0.790949 0.095528 0
0.529447 0.241746 0
0.333616 0.113458 0
0.257128 -0.037539 0
0.238509 -0.120841 0
0.254777 -0.179400 0
0.296163 -0.232387 0
0.355503 -0.270719 0
0.428752 -0.272341 0
0.505105 -0.241956 0
0.574469 -0.200261 0
0.632652 -0.151970 0
0.675939 -0.073265 0
0.698336 0.055185 0
0.737223 0.176401 0
0.806254 0.217283 0
0.822312 0.232767 0
0.716793 0.318311 0
0.559538 0.440921 0
0.487210 0.480090 0
0.539530 0.374845 0
0.651603 0.192672 0
0.779008 0.053798 0
0.895836 0.024391 0
0.920033 0.075614 0
0.865137 0.148920 0
0.791088 0.207473 0
0.724867 0.222829 0
0.675299 0.184484 0
0.627745 0.121427 0
0.565372 0.079063 0
0.500678 0.058556 0
0.453295 0.027604 0
0.435691 -0.030740 0
0.449697 -0.100288 0
0.485003 -0.158743 0
0.534223 -0.194428 0
0.597597 -0.209887 0
0.664495 -0.219898 0
0.764371 -0.164171 0
0.847543 -0.081187 0
0.865273 -0.057457 0
1.000000 -0.000573 0
1.000003 -0.001949 0
1.000327 -0.003746 0
1.000715 -0.005972 0
1.001352 -0.008653 0
1.002511 -0.011679 0
1.003963 -0.015039 0
1.005571 -0.018921 0
1.007405 -0.023514 0
1.009523 -0.028962 0
1.011927 -0.035455 0
1.014591 -0.043271 0
1.017425 -0.052830 0
1.020300 -0.064783 0
1.022911 -0.080278 0
1.026132 -0.100706 0
1.029998 -0.127731 0
1.037148 -0.161175 0
1.035424 -0.213919 0
1.060428 -0.285186 0
1.074607 -0.379932 0
1.205491 -0.643667 0
1.538685 -0.637400 0
1.450136 -0.308932 0
1.339808 -0.137513 0
1.288167 -0.024796 0
1.266076 0.016084 0
1.047488 -0.037768 0
1.279957 -0.024975 0
1.324310 0.055518 0
1.389557 0.126959 0
1.500664 0.241312 0
1.564592 0.399105 0
1.549124 0.550341 0
1.447248 0.633416 0
1.316194 0.612453 0
1.027527 0.593026 0
0.505885 0.422041 0
0.433045 0.277048 0
0.313166 0.418863 0
0.097186 0.393177 0
0.060924 0.072630 0
0.095941 -0.300117 0
0.084705 -0.601392 0
0.096586 -0.770349 0
0.229985 -0.722862 0
0.463250 -0.509527 0
0.687926 -0.273326 0
0.855869 -0.065163 0
0.965167 0.082507 0
1.034232 0.178137 0
1.076823 0.259533 0
1.109981 0.330870 0
1.117555 0.390494 0
1.110986 0.443661 0
1.114279 0.479804 0
1.126848 0.445661 0
1.097368 0.313187 0
0.766451 0.236757 0
0.460600 0.301264 0
0.428115 0.279678 0
0.445025 0.126260 0
0.375435 -0.000215 0
0.292723 -0.094072 0
0.246673 -0.181251 0
0.243508 -0.254298 0
0.269988 -0.304578 0
0.316671 -0.326411 0
0.381410 -0.317292 0
0.456575 -0.275564 0
0.523315 -0.200370 0
0.568491 -0.098196 0
0.611710 0.011306 0
0.673371 0.104023 0
0.712998 0.197915 0
0.672332 0.325203 0
0.595666 0.444392 0
0.588254 0.475331 0
0.686556 0.398571 0
0.811822 0.263903 0
0.891269 0.113298 0
0.925897 -0.017314 0
0.887816 -0.016748 0
0.784862 0.104069 0
0.726385 0.193183 0
0.731798 0.214517 0
0.760074 0.208432 0
0.776914 0.200345 0
0.761939 0.194863 0
0.719405 0.178920 0
0.671396 0.137186 0
0.638947 0.065090 0
0.635701 -0.029293 0
0.658770 -0.121463 0
0.704708 -0.188575 0
0.760565 -0.227289 0
0.809567 -0.237593 0
0.839525 -0.227929 0
0.836584 -0.218542 0
0.842166 -0.148737 0
0.846374 -0.080058 0
1.000000 -0.000538 0
0.999863 -0.002086 0
1.000119 -0.004027 0
1.000415 -0.006255 0
1.000244 -0.009316 0
1.001154 -0.012795 0
1.002255 -0.016317 0
1.003210 -0.020283 0
1.004219 -0.025026 0
1.005306 -0.030640 0
1.006444 -0.037254 0
1.007507 -0.045068 0
1.008323 -0.054406 0
1.008508 -0.065668 0
1.005692 -0.080731 0
1.007451 -0.101026 0
1.000032 -0.129622 0
1.000602 -0.155817 0
0.984614 -0.216761 0
0.983461 -0.289028 0
0.956794 -0.456966 0
1.046174 -0.885176 0
0.747565 -0.582879 0
-0.000967 0.000000 0
-0.001107 0.000000 0
0.496495 0.003840 0
0.527208 0.212720 0
0.230925 -0.026524 0
0.643513 -0.252326 0
0.503637 -0.020520 0
0.647098 -0.010778 0
1.022657 0.082651 0
1.252370 0.295127 0
1.311569 0.516471 0
1.313171 0.685618 0
1.221116 0.829647 0
0.988117 1.045074 0
0.799760 0.820811 0
0.562968 0.457097 0
0.285886 0.506794 0
0.260891 0.372072 0
0.347205 -0.007598 0
0.439274 -0.314221 0
0.470961 -0.530034 0
0.394889 -0.720539 0
0.289834 -0.811277 0
0.325964 -0.703837 0
0.468111 -0.481027 0
0.643144 -0.249287 0
0.808441 -0.038353 0
0.922998 0.123280 0
0.991483 0.223220 0
1.031719 0.293424 0
1.053662 0.364361 0
1.075415 0.426151 0
1.090154 0.466752 0
1.088643 0.470638 0
1.026499 0.498852 0
0.852321 0.533966 0
0.718278 0.433861 0
0.706883 0.257319 0
0.645616 0.166135 0
0.506396 0.114760 0
0.382385 0.007918 0
0.293242 -0.130187 0
0.237216 -0.255705 0
0.227280 -0.343884 0
0.251679 -0.383766 0
0.298659 -0.381864 0
0.357951 -0.342168 0
0.419084 -0.263888 0
0.479728 -0.161663 0
0.538590 -0.049698 0
0.592017 0.075111 0
0.616440 0.218321 0
0.629640 0.350098 0
0.689078 0.402389 0
0.813820 0.350031 0
0.941601 0.256522 0
1.030715 0.170132 0
1.075889 0.078598 0
1.067255 0.057252 0
0.927930 0.165428 0
0.772501 0.237048 0
0.688944 0.201987 0
0.632373 0.173787 0
0.594873 0.177717 0
0.589219 0.182623 0
0.613816 0.178940 0
0.654146 0.169611 0
0.689810 0.139019 0
0.721770 0.063304 0
0.761004 -0.050557 0
0.807843 -0.169290 0
0.852441 -0.260532 0
0.896280 -0.299282 0
0.948077 -0.288842 0
1.004559 -0.246909 0
1.035985 -0.166806 0
1.017036 -0.090972 0
1.023189 -0.066679 0
1.000000 -0.000437 0
0.999863 -0.002068 0
0.999771 -0.004296 0
1.000032 -0.006096 0
0.999964 -0.009390 0
0.999966 -0.013689 0
1.000269 -0.017093 0
1.000478 -0.020883 0
1.001118 -0.025609 0
1.000969 -0.031186 0
1.002280 -0.037655 0
1.000418 -0.045150 0
1.000595 -0.053832 0
0.996665 -0.062152 0
0.997021 -0.079222 0
0.986711 -0.095048 0
0.983381 -0.120885 0
0.957268 -0.145760 0
0.961560 -0.196781 0
0.889996 -0.257370 0
0.874285 -0.442650 0
0.634952 -0.529331 0
0.000000 0.001719 0
-0.630620 0.222602 0
-0.534625 0.000000 0
0.000000 0.000000 0
0.017972 0.295780 0
0.202555 -0.154079 0
-0.235749 -0.297694 0
0.036849 0.051927 0
0.138047 -0.392066 0
0.642060 -0.363965 0
0.959265 0.110188 0
1.064285 0.489535 0
1.092801 0.723864 0
1.032872 0.937503 0
0.961549 1.014378 0
1.040933 0.847186 0
0.729680 0.790917 0
0.472056 0.720936 0
0.447754 0.331854 0
0.448078 -0.105757 0
0.458718 -0.423877 0
0.542536 -0.557010 0
0.627990 -0.589225 0
0.582477 -0.653940 0
0.470076 -0.687808 0
0.457297 -0.590509 0
0.543513 -0.405496 0
0.680941 -0.197349 0
0.812514 -0.004907 0
0.910352 0.150809 0
0.961143 0.268688 0
0.993947 0.346795 0
1.026019 0.407167 0
1.055665 0.466574 0
1.077609 0.509314 0
1.082098 0.549507 0
1.116151 0.544976 0
1.157062 0.446699 0
1.086046 0.352338 0
0.885107 0.326745 0
0.723241 0.263014 0
0.644094 0.119079 0
0.568008 -0.036083 0
0.460154 -0.188338 0
0.372487 -0.319044 0
0.318910 -0.397793 0
0.298559 -0.423566 0
0.321047 -0.395991 0
0.372318 -0.322149 0
0.434050 -0.217704 0
0.491182 -0.100984 0
0.547106 0.026171 0
0.609932 0.160290 0
0.704588 0.252564 0
0.838877 0.260211 0
0.970568 0.222807 0
1.049283 0.181676 0
1.089309 0.129616 0
1.094345 0.076759 0
1.034974 0.130646 0
0.956888 0.278008 0
0.912022 0.343057 0
0.839916 0.333313 0
0.749025 0.308591 0
0.692604 0.251589 0
0.691137 0.181405 0
0.732759 0.129940 0
0.794901 0.102930 0
0.865286 0.069566 0
0.930399 -0.006100 0
0.975538 -0.115361 0
0.994115 -0.212895 0
0.987238 -0.277006 0
0.964404 -0.322920 0
0.948606 -0.345868 0
0.957198 -0.315832 0
0.979559 -0.231013 0
1.020083 -0.135936 0
1.039057 -0.090731 0
1.000000 -0.000401 0
1.000049 -0.001857 0
0.999613 -0.004194 0
0.999602 -0.006447 0
0.999944 -0.009248 0
0.999252 -0.013099 0
0.998786 -0.016828 0
0.998755 -0.021131 0
0.998511 -0.025516 0
0.998231 -0.031801 0
0.997085 -0.036701 0
0.995944 -0.043382 0
0.993763 -0.050654 0
0.989345 -0.062095 0
0.986477 -0.070778 0
0.974587 -0.087387 0
0.966012 -0.100180 0
0.939776 -0.133999 0
0.919486 -0.149492 0
0.854269 -0.201756 0
0.788934 -0.201927 0
0.476295 -0.096960 0
0.337128 -0.033994 0
0.000000 0.000000 0
0.000000 0.000000 0
0.000000 0.000000 0
0.000000 0.000000 0
0.271485 0.202897 0
-0.179213 -0.086626 0
0.081476 -0.394322 0
0.110010 -0.615995 0
0.242537 -0.738572 0
0.634533 -0.127103 0
0.878730 0.382930 0
0.965669 0.717027 0
1.003549 0.960895 0
0.982379 1.037008 0
0.874326 1.052676 0
0.589257 1.025971 0
0.467066 0.788717 0
0.443668 0.396046 0
0.451570 -0.018566 0
0.419825 -0.408683 0
0.386854 -0.699309 0
0.476251 -0.760483 0
0.625511 -0.653366 0
0.656693 -0.578661 0
0.599897 -0.554467 0
0.580357 -0.472934 0
0.640386 -0.307357 0
0.740589 -0.106134 0
0.829909 0.074589 0
0.898961 0.209827 0
0.961322 0.299483 0
1.018692 0.364431 0
1.089377 0.415160 0
1.178546 0.444204 0
1.264193 0.460309 0
1.327918 0.459000 0
1.299126 0.463964 0
1.136974 0.529272 0