# vtk DataFile Version 2.0
generated by CFD-lab course output (written by Tobias Neckel) 
ASCII

DATASET STRUCTURED_GRID
DIMENSIONS  101 21 1 
POINTS 2121 float

0.000000 0.000000 0
0.100000 0.000000 0
0.200000 0.000000 0
0.300000 0.000000 0
0.400000 0.000000 0
0.500000 0.000000 0
0.600000 0.000000 0
0.700000 0.000000 0
0.800000 0.000000 0
0.900000 0.000000 0
1.000000 0.000000 0
1.100000 0.000000 0
1.200000 0.000000 0
1.300000 0.000000 0
1.400000 0.000000 0
1.500000 0.000000 0
1.600000 0.000000 0
1.700000 0.000000 0
1.800000 0.000000 0
1.900000 0.000000 0
2.000000 0.000000 0
2.100000 0.000000 0
2.200000 0.000000 0
2.300000 0.000000 0
2.400000 0.000000 0
2.500000 0.000000 0
2.600000 0.000000 0
2.700000 0.000000 0
2.800000 0.000000 0
2.900000 0.000000 0
3.000000 0.000000 0
3.100000 0.000000 0
3.200000 0.000000 0
3.300000 0.000000 0
3.400000 0.000000 0
3.500000 0.000000 0
3.600000 0.000000 0
3.700000 0.000000 0
3.800000 0.000000 0
3.900000 0.000000 0
4.000000 0.000000 0
4.100000 0.000000 0
4.200000 0.000000 0
4.300000 0.000000 0
4.400000 0.000000 0
4.500000 0.000000 0
4.600000 0.000000 0
4.700000 0.000000 0
4.800000 0.000000 0
4.900000 0.000000 0
5.000000 0.000000 0
5.100000 0.000000 0
5.200000 0.000000 0
5.300000 0.000000 0
5.400000 0.000000 0
5.500000 0.000000 0
5.600000 0.000000 0
5.700000 0.000000 0
5.800000 0.000000 0
5.900000 0.000000 0
6.000000 0.000000 0
6.100000 0.000000 0
6.200000 0.000000 0
6.300000 0.000000 0
6.400000 0.000000 0
6.500000 0.000000 0
6.600000 0.000000 0
6.700000 0.000000 0
6.800000 0.000000 0
6.900000 0.000000 0
7.000000 0.000000 0
7.100000 0.000000 0
7.200000 0.000000 0
7.300000 0.000000 0
7.400000 0.000000 0
7.500000 0.000000 0
7.600000 0.000000 0
7.700000 0.000000 0
7.800000 0.000000 0
7.900000 0.000000 0
8.000000 0.000000 0
8.100000 0.000000 0
8.200000 0.000000 0
8.300000 0.000000 0
8.400000 0.000000 0
8.500000 0.000000 0
8.600000 0.000000 0
8.700000 0.000000 0
8.800000 0.000000 0
8.900000 0.000000 0
9.000000 0.000000 0
9.100000 0.000000 0
9.200000 0.000000 0
9.300000 0.000000 0
9.400000 0.000000 0
9.500000 0.000000 0
9.600000 0.000000 0
9.700000 0.000000 0
9.800000 0.000000 0
9.900000 0.000000 0
10.000000 0.000000 0
0.000000 0.100000 0
0.100000 0.100000 0
0.200000 0.100000 0
0.300000 0.100000 0
0.400000 0.100000 0
0.500000 0.100000 0
0.600000 0.100000 0
0.700000 0.100000 0
0.800000 0.100000 0
0.900000 0.100000 0
1.000000 0.100000 0
1.100000 0.100000 0
1.200000 0.100000 0
1.300000 0.100000 0
1.400000 0.100000 0
1.500000 0.100000 0
1.600000 0.100000 0
1.700000 0.100000 0
1.800000 0.100000 0
1.900000 0.100000 0
2.000000 0.100000 0
2.100000 0.100000 0
2.200000 0.100000 0
2.300000 0.100000 0
2.400000 0.100000 0
2.500000 0.100000 0
2.600000 0.100000 0
2.700000 0.100000 0
2.800000 0.100000 0
2.900000 0.100000 0
3.000000 0.100000 0
3.100000 0.100000 0
3.200000 0.100000 0
3.300000 0.100000 0
3.400000 0.100000 0
3.500000 0.100000 0
3.600000 0.100000 0
3.700000 0.100000 0
3.800000 0.100000 0
3.900000 0.100000 0
4.000000 0.100000 0
4.100000 0.100000 0
4.200000 0.100000 0
4.300000 0.100000 0
4.400000 0.100000 0
4.500000 0.100000 0
4.600000 0.100000 0
4.700000 0.100000 0
4.800000 0.100000 0
4.900000 0.100000 0
5.000000 0.100000 0
5.100000 0.100000 0
5.200000 0.100000 0
5.300000 0.100000 0
5.400000 0.100000 0
5.500000 0.100000 0
5.600000 0.100000 0
5.700000 0.100000 0
5.800000 0.100000 0
5.900000 0.100000 0
6.000000 0.100000 0
6.100000 0.100000 0
6.200000 0.100000 0
6.300000 0.100000 0
6.400000 0.100000 0
6.500000 0.100000 0
6.600000 0.100000 0
6.700000 0.100000 0
6.800000 0.100000 0
6.900000 0.100000 0
7.000000 0.100000 0
7.100000 0.100000 0
7.200000 0.100000 0
7.300000 0.100000 0
7.400000 0.100000 0
7.500000 0.100000 0
7.600000 0.100000 0
7.700000 0.100000 0
7.800000 0.100000 0
7.900000 0.100000 0
8.000000 0.100000 0
8.100000 0.100000 0
8.200000 0.100000 0
8.300000 0.100000 0
8.400000 0.100000 0
8.500000 0.100000 0
8.600000 0.100000 0
8.700000 0.100000 0
8.800000 0.100000 0
8.900000 0.100000 0
9.000000 0.100000 0
9.100000 0.100000 0
9.200000 0.100000 0
9.300000 0.100000 0
9.400000 0.100000 0
9.500000 0.100000 0
9.600000 0.100000 0
9.700000 0.100000 0
9.800000 0.100000 0
9.900000 0.100000 0
10.000000 0.100000 0
0.000000 0.200000 0
0.100000 0.200000 0
0.200000 0.200000 0
0.300000 0.200000 0
0.400000 0.200000 0
0.500000 0.200000 0
0.600000 0.200000 0
0.700000 0.200000 0
0.800000 0.200000 0
0.900000 0.200000 0
1.000000 0.200000 0
1.100000 0.200000 0
1.200000 0.200000 0
1.300000 0.200000 0
1.400000 0.200000 0
1.500000 0.200000 0
1.600000 0.200000 0
1.700000 0.200000 0
1.800000 0.200000 0
1.900000 0.200000 0
2.000000 0.200000 0
2.100000 0.200000 0
2.200000 0.200000 0
2.300000 0.200000 0
2.400000 0.200000 0
2.500000 0.200000 0
2.600000 0.200000 0
2.700000 0.200000 0
2.800000 0.200000 0
2.900000 0.200000 0
3.000000 0.200000 0
3.100000 0.200000 0
3.200000 0.200000 0
3.300000 0.200000 0
3.400000 0.200000 0
3.500000 0.200000 0
3.600000 0.200000 0
3.700000 0.200000 0
3.800000 0.200000 0
3.900000 0.200000 0
4.000000 0.200000 0
4.100000 0.200000 0
4.200000 0.200000 0
4.300000 0.200000 0
4.400000 0.200000 0
4.500000 0.200000 0
4.600000 0.200000 0
4.700000 0.200000 0
4.800000 0.200000 0
4.900000 0.200000 0
5.000000 0.200000 0
5.100000 0.200000 0
5.200000 0.200000 0
5.300000 0.200000 0
5.400000 0.200000 0
5.500000 0.200000 0
5.600000 0.200000 0
5.700000 0.200000 0
5.800000 0.200000 0
5.900000 0.200000 0
6.000000 0.200000 0
6.100000 0.200000 0
6.200000 0.200000 0
6.300000 0.200000 0
6.400000 0.200000 0
6.500000 0.200000 0
6.600000 0.200000 0
6.700000 0.200000 0
6.800000 0.200000 0
6.900000 0.200000 0
7.000000 0.200000 0
7.100000 0.200000 0
7.200000 0.200000 0
7.300000 0.200000 0
7.400000 0.200000 0
7.500000 0.200000 0
7.600000 0.200000 0
7.700000 0.200000 0
7.800000 0.200000 0
7.900000 0.200000 0
8.000000 0.200000 0
8.100000 0.200000 0
8.200000 0.200000 0
8.300000 0.200000 0
8.400000 0.200000 0
8.500000 0.200000 0
8.600000 0.200000 0
8.700000 0.200000 0
8.800000 0.200000 0
8.900000 0.200000 0
9.000000 0.200000 0
9.100000 0.200000 0
9.200000 0.200000 0
9.300000 0.200000 0
9.400000 0.200000 0
9.500000 0.200000 0
9.600000 0.200000 0
9.700000 0.200000 0
9.800000 0.200000 0
9.900000 0.200000 0
10.000000 0.200000 0
0.000000 0.300000 0
0.100000 0.300000 0
0.200000 0.300000 0
0.300000 0.300000 0
0.400000 0.300000 0
0.500000 0.300000 0
0.600000 0.300000 0
0.700000 0.300000 0
0.800000 0.300000 0
0.900000 0.300000 0
1.000000 0.300000 0
1.100000 0.300000 0
1.200000 0.300000 0
1.300000 0.300000 0
1.400000 0.300000 0
1.500000 0.300000 0
1.600000 0.300000 0
1.700000 0.300000 0
1.800000 0.300000 0
1.900000 0.300000 0
2.000000 0.300000 0
2.100000 0.300000 0
2.200000 0.300000 0
2.300000 0.300000 0
2.400000 0.300000 0
2.500000 0.300000 0
2.600000 0.300000 0
2.700000 0.300000 0
2.800000 0.300000 0
2.900000 0.300000 0
3.000000 0.300000 0
3.100000 0.300000 0
3.200000 0.300000 0
3.300000 0.300000 0
3.400000 0.300000 0
3.500000 0.300000 0
3.600000 0.300000 0
3.700000 0.300000 0
3.800000 0.300000 0
3.900000 0.300000 0
4.000000 0.300000 0
4.100000 0.300000 0
4.200000 0.300000 0
4.300000 0.300000 0
4.400000 0.300000 0
4.500000 0.300000 0
4.600000 0.300000 0
4.700000 0.300000 0
4.800000 0.300000 0
4.900000 0.300000 0
5.000000 0.300000 0
5.100000 0.300000 0
5.200000 0.300000 0
5.300000 0.300000 0
5.400000 0.300000 0
5.500000 0.300000 0
5.600000 0.300000 0
5.700000 0.300000 0
5.800000 0.300000 0
5.900000 0.300000 0
6.000000 0.300000 0
6.100000 0.300000 0
6.200000 0.300000 0
6.300000 0.300000 0
6.400000 0.300000 0
6.500000 0.300000 0
6.600000 0.300000 0
6.700000 0.300000 0
6.800000 0.300000 0
6.900000 0.300000 0
7.000000 0.300000 0
7.100000 0.300000 0
7.200000 0.300000 0
7.300000 0.300000 0
7.400000 0.300000 0
7.500000 0.300000 0
7.600000 0.300000 0
7.700000 0.300000 0
7.800000 0.300000 0
7.900000 0.300000 0
8.000000 0.300000 0
8.100000 0.300000 0
8.200000 0.300000 0
8.300000 0.300000 0
8.400000 0.300000 0
8.500000 0.300000 0
8.600000 0.300000 0
8.700000 0.300000 0
8.800000 0.300000 0
8.900000 0.300000 0
9.000000 0.300000 0
9.100000 0.300000 0
9.200000 0.300000 0
9.300000 0.300000 0
9.400000 0.300000 0
9.500000 0.300000 0
9.600000 0.300000 0
9.700000 0.300000 0
9.800000 0.300000 0
9.900000 0.300000 0
10.000000 0.300000 0
0.000000 0.400000 0
0.100000 0.400000 0
0.200000 0.400000 0
0.300000 0.400000 0
0.400000 0.400000 0
0.500000 0.400000 0
0.600000 0.400000 0
0.700000 0.400000 0
0.800000 0.400000 0
0.900000 0.400000 0
1.000000 0.400000 0
1.100000 0.400000 0
1.200000 0.400000 0
1.300000 0.400000 0
1.400000 0.400000 0
1.500000 0.400000 0
1.600000 0.400000 0
1.700000 0.400000 0
1.800000 0.400000 0
1.900000 0.400000 0
2.000000 0.400000 0
2.100000 0.400000 0
2.200000 0.400000 0
2.300000 0.400000 0
2.400000 0.400000 0
2.500000 0.400000 0
2.600000 0.400000 0
2.700000 0.400000 0
2.800000 0.400000 0
2.900000 0.400000 0
3.000000 0.400000 0
3.100000 0.400000 0
3.200000 0.400000 0
3.300000 0.400000 0
3.400000 0.400000 0
3.500000 0.400000 0
3.600000 0.400000 0
3.700000 0.400000 0
3.800000 0.400000 0
3.900000 0.400000 0
4.000000 0.400000 0
4.100000 0.400000 0
4.200000 0.400000 0
4.300000 0.400000 0
4.400000 0.400000 0
4.500000 0.400000 0
4.600000 0.400000 0
4.700000 0.400000 0
4.800000 0.400000 0
4.900000 0.400000 0
5.000000 0.400000 0
5.100000 0.400000 0
5.200000 0.400000 0
5.300000 0.400000 0
5.400000 0.400000 0
5.500000 0.400000 0
5.600000 0.400000 0
5.700000 0.400000 0
5.800000 0.400000 0
5.900000 0.400000 0
6.000000 0.400000 0
6.100000 0.400000 0
6.200000 0.400000 0
6.300000 0.400000 0
6.400000 0.400000 0
6.500000 0.400000 0
6.600000 0.400000 0
6.700000 0.400000 0
6.800000 0.400000 0
6.900000 0.400000 0
7.000000 0.400000 0
7.100000 0.400000 0
7.200000 0.400000 0
7.300000 0.400000 0
7.400000 0.400000 0
7.500000 0.400000 0
7.600000 0.400000 0
7.700000 0.400000 0
7.800000 0.400000 0
7.900000 0.400000 0
8.000000 0.400000 0
8.100000 0.400000 0
8.200000 0.400000 0
8.300000 0.400000 0
8.400000 0.400000 0
8.500000 0.400000 0
8.600000 0.400000 0
[...]
POINT_DATA 2121 

VECTORS velocity float
0.500000 0.000000 0
-0.000002 0.000000 0
0.000001 0.000000 0
0.000006 0.000000 0
0.000009 0.000000 0
0.000012 0.000000 0
0.000017 0.000000 0
0.000022 0.000000 0
0.000025 0.000000 0
0.000027 0.000000 0
0.000028 0.000000 0
0.000016 0.000000 0
-0.000003 0.000000 0
-0.000023 0.000000 0
-0.000042 0.000000 0
-0.000063 0.000000 0
-0.000089 0.000000 0
-0.000124 0.000000 0
-0.000165 0.000000 0
-0.000210 0.000000 0
-0.000256 0.000000 0
-0.000307 0.000000 0
-0.000375 0.000000 0
-0.000485 0.000000 0
-0.000650 0.000000 0
-0.000879 0.000000 0
-0.001186 0.000000 0
-0.001581 0.000000 0
-0.002054 0.000000 0
-0.002564 0.000000 0
-0.003014 0.000000 0
-0.003182 0.000000 0
-0.002821 0.000000 0
-0.002013 0.000000 0
-0.000700 0.000000 0
0.000835 0.000000 0
0.002364 0.000000 0
0.003719 0.000000 0
0.004836 0.000000 0
0.005731 0.000000 0
0.006148 0.000000 0
0.005613 0.000000 0
0.007622 0.000000 0
0.011424 0.000000 0
-0.002441 0.000000 0
-0.000474 0.000000 0
0.035439 0.000000 0
0.020046 0.000000 0
-0.008375 0.000000 0
-0.009215 0.000000 0
-0.010861 0.000000 0
-0.018104 0.000000 0
-0.020465 0.000000 0
-0.020846 0.000000 0
-0.022123 0.000000 0
-0.021385 0.000000 0
-0.018508 0.000000 0
-0.011760 0.000000 0
-0.003048 0.000000 0
0.007613 0.000000 0
0.016437 0.000000 0
0.022343 0.000000 0
0.034948 0.000000 0
0.033869 0.000000 0
0.013054 0.000000 0
-0.000401 0.000000 0
-0.001568 0.000000 0
0.002692 0.000000 0
0.005987 0.000000 0
0.005033 0.000000 0
0.002842 0.000000 0
0.001402 0.000000 0
0.000854 0.000000 0
0.000916 0.000000 0
0.000888 0.000000 0
0.000347 0.000000 0
-0.000830 0.000000 0
-0.002247 0.000000 0
-0.003665 0.000000 0
-0.005242 0.000000 0
-0.007205 0.000000 0
-0.009291 0.000000 0
-0.011450 0.000000 0
-0.013087 0.000000 0
-0.013637 0.000000 0
-0.012884 0.000000 0
-0.011901 0.000000 0
-0.016030 0.000000 0
-0.017227 0.000000 0
-0.017706 0.000000 0
-0.017205 0.000000 0
-0.015554 0.000000 0
-0.012867 0.000000 0
-0.009496 0.000000 0
-0.005468 0.000000 0
-0.000708 0.000000 0
0.004654 0.000000 0
0.010060 0.000000 0
0.014960 0.000000 0
0.019965 0.000000 0
0.022918 0.000000 0
1.000000 0.000367 0
0.999864 0.000911 0
0.999656 0.001127 0
0.999464 0.001147 0
0.999357 0.001031 0
0.999409 0.000863 0
0.999682 0.000596 0
1.000281 0.000203 0
1.001309 -0.000279 0
1.002923 -0.000975 0
1.005344 -0.002236 0
1.008897 -0.003725 0
1.013829 -0.005308 0
1.020575 -0.007503 0
1.029703 -0.010348 0
1.041926 -0.013966 0
1.058095 -0.018474 0
1.079191 -0.023895 0
1.106206 -0.030055 0
1.139940 -0.036444 0
1.180533 -0.042078 0
1.226741 -0.045609 0
1.275832 -0.045547 0
1.322309 -0.041558 0
1.362147 -0.035071 0
1.394018 -0.027908 0
1.418393 -0.021357 0
1.436583 -0.016121 0
1.450300 -0.012548 0
1.461330 -0.010759 0
1.471469 -0.010349 0
1.482325 -0.009845 0
1.493237 -0.006849 0
1.500530 0.000416 0
1.499356 0.011173 0
1.485189 0.023735 0
1.457334 0.036775 0
1.416548 0.048780 0
1.364805 0.058871 0
1.304578 0.066393 0
1.238995 0.067627 0
1.172259 0.064236 0
1.103752 0.092833 0
1.037002 0.110897 0
1.017863 -0.025124 0
0.859764 -0.027587 0
0.545132 0.218381 0
0.322603 0.207602 0
0.322579 -0.013057 0
0.431944 -0.079131 0
0.437571 -0.077561 0
0.488278 -0.124330 0
0.638419 -0.151845 0
0.852590 -0.151709 0
1.066297 -0.157136 0
1.228786 -0.152791 0
1.361117 -0.127142 0
1.461667 -0.082168 0
1.523769 -0.017620 0
1.535429 0.056649 0
1.487284 0.121460 0
1.379381 0.181592 0
1.213217 0.279152 0
1.005584 0.287446 0
0.832275 0.144158 0
0.761755 0.019868 0
0.752745 -0.013055 0
0.659252 0.010332 0
0.548090 0.034301 0
0.480513 0.031098 0
0.452632 0.015654 0
0.441987 0.005892 0
0.436414 0.005190 0
0.428957 0.009119 0
0.415615 0.011442 0
0.403042 0.009084 0
0.398169 -0.000579 0
0.403902 -0.012311 0
0.421022 -0.022402 0
0.445226 -0.032623 0
0.477108 -0.045210 0
0.518390 -0.059783 0
0.574658 -0.074633 0
0.647850 -0.086426 0
0.739893 -0.092603 0
0.845962 -0.090124 0
0.955548 -0.090259 0
1.059200 -0.104256 0
1.166591 -0.117214 0
1.282446 -0.121548 0
1.398223 -0.118771 0
1.509366 -0.108889 0
1.608855 -0.093006 0
1.690532 -0.072919 0
1.752491 -0.049850 0
1.792286 -0.023999 0
1.807824 0.003217 0
1.799091 0.027530 0
1.770228 0.047852 0
1.724680 0.048713 0
1.691026 0.042877 0
1.000000 0.000138 0
1.000377 0.000347 0
1.000961 0.000403 0
1.001671 0.000302 0
1.002518 0.000057 0
1.003503 -0.000323 0
1.004751 -0.000870 0
1.006256 -0.001625 0
1.008175 -0.002639 0
1.010626 -0.004033 0
1.013771 -0.005972 0
1.017539 -0.008481 0
1.022601 -0.011675 0
1.029253 -0.015869 0
1.038006 -0.021345 0
1.049598 -0.028385 0
1.064882 -0.037256 0
1.084997 -0.048100 0
1.111238 -0.060736 0
1.145095 -0.074313 0
1.187695 -0.086785 0
1.238086 -0.095280 0
1.294925 -0.095548 0
1.347332 -0.086295 0
1.389509 -0.071688 0
1.421156 -0.056224 0
1.444143 -0.042544 0
1.460458 -0.031886 0
1.471959 -0.024728 0
1.480545 -0.021150 0
1.488313 -0.020977 0
1.499042 -0.021751 0
1.513749 -0.018190 0
1.527672 -0.006105 0
1.534652 0.015353 0
1.527628 0.042034 0
1.502798 0.068652 0
1.464019 0.092540 0
1.414641 0.111979 0
1.357020 0.125819 0
1.292300 0.132328 0
1.217176 0.135251 0
1.135545 0.135265 0
1.089239 0.085896 0
1.037108 0.177245 0
0.780563 0.472738 0
0.591096 0.537168 0
0.697675 0.222558 0
0.789326 -0.109337 0
0.459633 -0.114989 0
0.273827 -0.056330 0
0.256178 -0.200846 0
0.329054 -0.364311 0
0.505493 -0.427878 0
0.759024 -0.376197 0
0.982076 -0.294821 0
1.121343 -0.232883 0
1.196252 -0.162655 0
1.254947 -0.073766 0
1.297983 0.036481 0
1.312206 0.156042 0
1.281582 0.274060 0
1.219134 0.373790 0
1.186684 0.380935 0
1.117280 0.243821 0
0.983044 0.079521 0
0.793232 0.102494 0
0.609838 0.204645 0
0.491713 0.178727 0
0.440469 0.095446 0
0.422113 0.038513 0
0.411481 0.016205 0
0.403469 0.013015 0
0.394155 0.020784 0
0.377279 0.025900 0
0.361389 0.017430 0
0.358201 -0.000876 0
0.368509 -0.022871 0
0.387248 -0.041342 0
0.408862 -0.056103 0
0.431002 -0.073181 0
0.451342 -0.097566 0
0.475952 -0.129476 0
0.512334 -0.165251 0
0.571408 -0.198127 0
0.663104 -0.215670 0
0.788616 -0.213252 0
0.924484 -0.211057 0
1.045509 -0.223259 0
1.151571 -0.231644 0
1.253672 -0.226932 0
1.352109 -0.210643 0
1.439220 -0.181176 0
1.513842 -0.143646 0
1.573437 -0.101764 0
1.615407 -0.055342 0
1.638809 -0.006814 0
1.644191 0.037587 0
1.633897 0.074402 0
1.611772 0.079193 0
1.592172 0.072225 0
1.000000 -0.000008 0
1.000250 -0.000048 0
1.000684 -0.000167 0
1.001257 -0.000410 0
1.001962 -0.000802 0
1.002811 -0.001370 0
1.003855 -0.002157 0
1.005128 -0.003222 0
1.006709 -0.004649 0
1.008683 -0.006570 0
1.011161 -0.009149 0
1.014257 -0.012554 0
1.018301 -0.017021 0
1.023599 -0.022907 0
1.030560 -0.030691 0
1.040024 -0.040839 0
1.052692 -0.053869 0
1.070023 -0.070246 0
1.093592 -0.090149 0
1.126211 -0.112896 0
1.171368 -0.135063 0
1.227606 -0.152832 0
1.303345 -0.154785 0
1.367305 -0.136133 0
1.411668 -0.108887 0
1.440636 -0.082535 0
1.459727 -0.060651 0
1.471621 -0.043929 0
1.477583 -0.032628 0
1.480233 -0.027108 0
1.481255 -0.028841 0
1.488660 -0.035276 0
1.508685 -0.035475 0
1.532064 -0.020483 0
1.550661 0.011221 0
1.554517 0.055593 0
1.532234 0.100389 0
1.488990 0.136940 0
1.434528 0.165874 0
1.375537 0.188738 0
1.315128 0.207475 0
1.250461 0.220994 0
1.178799 0.220774 0
1.093363 0.209337 0
0.965366 0.283554 0
1.018090 0.418426 0
1.287666 0.301271 0
1.363203 0.009375 0
1.002709 0.224987 0
0.618529 0.436369 0
0.621508 0.125896 0
0.681516 -0.179557 0
0.644041 -0.401160 0
0.538601 -0.581679 0
0.581346 -0.633720 0
0.756044 -0.515111 0
0.909998 -0.341319 0
1.006945 -0.215774 0
1.059414 -0.119353 0
1.088961 -0.000612 0
1.108432 0.137858 0
1.119189 0.274662 0
1.139670 0.374047 0
1.165542 0.389296 0
1.146310 0.347794 0
1.010780 0.343912 0
0.772906 0.360147 0
0.630193 0.311846 0
0.567381 0.203665 0
0.537287 0.100693 0
0.525303 0.044636 0
0.505675 0.024530 0
0.490019 0.022510 0
0.477541 0.035303 0
0.438108 0.044201 0
0.400459 0.028155 0
0.398474 -0.007705 0
0.424959 -0.041364 0
0.459919 -0.062761 0
0.496800 -0.076383 0
0.531381 -0.087696 0
0.559669 -0.104738 0
0.571120 -0.135631 0
0.565629 -0.181887 0
0.555437 -0.243377 0
0.564974 -0.307337 0
0.617040 -0.351643 0
0.718007 -0.361152 0
0.844922 -0.344305 0
0.967084 -0.329714 0
1.073147 -0.319312 0
1.158267 -0.294440 0
1.230563 -0.254741 0
1.295714 -0.207139 0
1.349597 -0.151418 0
1.389099 -0.089374 0
1.414499 -0.025569 0
1.427445 0.032440 0
1.430153 0.080268 0
1.427772 0.090436 0
1.422039 0.084776 0
1.000000 -0.000111 0
1.000176 -0.000335 0
1.000495 -0.000604 0
1.000933 -0.000976 0
1.001481 -0.001498 0
1.002144 -0.002216 0
1.002945 -0.003187 0
1.003910 -0.004480 0
1.005067 -0.006194 0
1.006459 -0.008484 0
1.008169 -0.011546 0
1.010295 -0.015622 0
1.013058 -0.021015 0
1.016652 -0.028126 0
1.021065 -0.037768 0
1.027807 -0.050516 0
1.036559 -0.067253 0
1.049695 -0.088996 0
1.068020 -0.116920 0
1.096566 -0.152084 0
1.144240 -0.188174 0
1.204239 -0.227251 0
1.330011 -0.235241 0
1.410066 -0.194610 0
1.449209 -0.145011 0
1.467920 -0.104276 0
1.478801 -0.073521 0
1.483429 -0.049736 0
1.479417 -0.033334 0
1.472203 -0.024817 0
1.457475 -0.029399 0
1.452575 -0.049176 0
1.477674 -0.061588 0
1.509710 -0.048077 0
1.546811 -0.007096 0
1.577930 0.060465 0
1.569427 0.134183 0
1.528737 0.190249 0
1.466021 0.225436 0
1.389920 0.245223 0
1.311324 0.257407 0
1.241208 0.271582 0
1.178002 0.292366 0
1.107457 0.299333 0
1.062285 0.252521 0
1.150237 0.150440 0
1.176734 0.192056 0
0.884583 0.507517 0
0.522559 0.635339 0
0.712836 0.266214 0
0.971055 -0.119317 0
1.124098 -0.223378 0
1.163812 -0.221396 0
1.056225 -0.365184 0
0.843458 -0.593641 0
0.710518 -0.623474 0
0.735308 -0.483785 0
0.825233 -0.312074 0
0.894861 -0.155783 0
0.936433 -0.012539 0
0.965387 0.125811 0
0.994930 0.242820 0
1.034186 0.327434 0
1.074896 0.374292 0
1.077125 0.398579 0
1.031932 0.452920 0
0.975557 0.483077 0
0.919569 0.410165 0
0.853722 0.271627 0
0.794069 0.137518 0
0.814914 0.070120 0
0.851950 0.051482 0
0.774446 0.041143 0
0.621283 0.072689 0
0.481083 0.102976 0
0.420266 0.057059 0
0.439451 -0.025382 0
0.488007 -0.084322 0
0.536588 -0.113188 0
0.576984 -0.127570 0
0.619477 -0.136055 0
0.675766 -0.137310 0
0.738586 -0.135440 0
0.783044 -0.149572 0
0.788123 -0.197477 0
0.745986 -0.277276 0
0.686535 -0.366289 0
0.654285 -0.438942 0
0.679812 -0.472338 0
0.758320 -0.459871 0
0.855808 -0.418117 0
0.948527 -0.368061 0
1.027682 -0.318625 0
1.087217 -0.262682 0
1.128261 -0.195150 0
1.159145 -0.120246 0
1.179731 -0.045162 0
1.188905 0.021932 0
1.189991 0.074074 0
1.192304 0.087305 0
1.195840 0.084579 0
1.000000 -0.000184 0
1.000121 -0.000543 0
1.000345 -0.000925 0
1.000657 -0.001397 0
1.001043 -0.002013 0
1.001501 -0.002835 0
1.002040 -0.003923 0
1.002667 -0.005344 0
1.003367 -0.007200 0
1.004098 -0.009672 0
1.004951 -0.012986 0
1.005904 -0.017443 0
1.007193 -0.023377 0
1.009087 -0.030914 0
1.009586 -0.041845 0
1.013775 -0.056331 0
1.016567 -0.075754 0
1.024415 -0.101704 0
1.033303 -0.137016 0
1.051008 -0.189111 0
1.098471 -0.242732 0
1.151960 -0.338597 0
1.394572 -0.360606 0
1.462663 -0.255324 0
1.460791 -0.166734 0
1.447148 -0.112120 0
1.439597 -0.076153 0
1.434542 -0.044539 0
1.412286 -0.021397 0
1.397776 -0.005161 0
1.345905 -0.009207 0
1.299915 -0.055470 0
1.326797 -0.092606 0
1.344252 -0.089616 0
1.382923 -0.056994 0
1.472435 0.032981 0
1.504303 0.149585 0
1.509213 0.240350 0
1.481613 0.304694 0
1.426378 0.343439 0
1.348932 0.356191 0
1.261708 0.354320 0
1.179042 0.354529 0
1.117232 0.325056 0
1.080299 0.240777 0
0.924324 0.303981 0
0.621708 0.566928 0
0.435721 0.663552 0
0.614482 0.396736 0
0.837176 -0.012126 0
0.920268 -0.285366 0
0.890558 -0.372312 0
0.880985 -0.333286 0
0.910182 -0.261326 0
0.823186 -0.288014 0
0.687339 -0.406962 0
0.630530 -0.456035 0
0.658100 -0.375329 0
0.724708 -0.230555 0
0.796358 -0.071140 0
0.861576 0.079358 0
0.922463 0.205860 0
0.973207 0.294079 0
1.014155 0.346353 0
1.038830 0.390754 0
1.058504 0.445477 0
1.093368 0.472506 0
1.107630 0.433677 0
1.090890 0.329159 0
1.062133 0.139495 0
0.981994 -0.013250 0
0.843749 0.064993 0
0.708085 0.253172 0
0.563103 0.328660 0
0.468920 0.245212 0
0.455483 0.069782 0
0.505932 -0.075451 0
0.590971 -0.138506 0
0.664221 -0.151743 0
0.684065 -0.159276 0
0.668304 -0.186482 0
0.672135 -0.223851 0
0.720609 -0.242913 0
0.803323 -0.231428 0
0.887429 -0.206322 0
0.932815 -0.205752 0
0.913199 -0.259944 0
0.838268 -0.354431 0
0.749830 -0.448343 0
0.697905 -0.505711 0
0.702432 -0.509521 0
0.750122 -0.466316 0
0.811752 -0.393433 0
0.864549 -0.307718 0
0.901662 -0.223346 0
0.925447 -0.140845 0
0.942042 -0.055330 0
0.954560 0.022179 0
0.964699 0.076868 0
0.970611 0.084586 0
0.978726 0.077127 0
1.000000 -0.000232 0
1.000070 -0.000681 0
1.000210 -0.001141 0
1.000404 -0.001676 0
1.000635 -0.002343 0
1.000878 -0.003214 0
1.001155 -0.004355 0
1.001466 -0.005807 0
1.001753 -0.007626 0
1.001737 -0.010070 0
1.001830 -0.013353 0
1.002100 -0.017864 0
1.000761 -0.024200 0
1.001112 -0.030519 0
0.999486 -0.042454 0
0.999630 -0.057495 0
0.997104 -0.077892 0
0.996409 -0.105730 0
0.996750 -0.143510 0
1.000620 -0.217249 0
1.017834 -0.289122 0
1.062409 -0.523347 0
1.413912 -0.545939 0
1.336705 -0.260823 0
1.236054 -0.129488 0
1.175374 -0.083074 0
1.091810 -0.060909 0
1.118464 -0.022419 0
1.087912 0.003439 0
0.994808 0.041570 0
1.041315 0.068467 0
0.762299 -0.030063 0
0.775745 -0.105921 0
0.729234 -0.104200 0
0.664285 -0.135275 0
0.994073 -0.060910 0
1.153201 0.097408 0
1.265553 0.212943 0
1.310868 0.308275 0
1.328971 0.377907 0
1.323743 0.422080 0
1.286882 0.441476 0
1.223816 0.436845 0
1.155035 0.398079 0
1.034315 0.445433 0
0.787615 0.609035 0
0.608701 0.680662 0
0.683213 0.514745 0
0.948334 0.233886 0
0.915971 -0.039571 0
0.593333 -0.172698 0
0.364201 -0.184094 0
0.285233 -0.241019 0
0.327007 -0.307385 0
0.435747 -0.370798 0
0.517038 -0.430818 0
0.540785 -0.454548 0
0.568234 -0.406253 0
0.622116 -0.294043 0
0.692290 -0.149410 0
0.767118 -0.000297 0
0.843278 0.131187 0
0.914104 0.235739 0
0.971476 0.308665 0
1.010535 0.354227 0
1.048140 0.398379 0
1.094855 0.433947 0
1.143613 0.412638 0
1.191398 0.317119 0
1.188449 0.246410 0
1.020886 0.288500 0
0.794630 0.325387 0
0.690251 0.321784 0
0.633354 0.311849 0
0.589928 0.210592 0
0.577201 0.020043 0
0.600430 -0.160874 0
0.676322 -0.242616 0
0.776532 -0.206286 0
0.852014 -0.131657 0
0.864125 -0.124130 0
0.814707 -0.189619 0
0.754789 -0.266632 0
0.737648 -0.316396 0
0.781542 -0.326972 0
0.867744 -0.303048 0
0.947311 -0.271744 0
0.970886 -0.275575 0
0.926470 -0.331976 0
0.838167 -0.412475 0
0.751776 -0.470335 0
0.698109 -0.477382 0
0.682791 -0.433053 0
0.692837 -0.352593 0
0.713256 -0.256049 0
0.730763 -0.160625 0
0.748289 -0.074276 0
0.769295 -0.000726 0
0.794762 0.058023 0
0.821305 0.073278 0
0.832730 0.067356 0
1.000000 -0.000255 0
1.000021 -0.000754 0
1.000099 -0.001260 0
1.000187 -0.001823 0
1.000277 -0.002489 0
1.000418 -0.003356 0
1.000244 -0.004513 0
1.000404 -0.005944 0
1.000212 -0.007472 0
1.000021 -0.009752 0
0.999105 -0.013350 0
0.999066 -0.016375 0
0.996749 -0.022391 0
0.995156 -0.029638 0
0.990875 -0.040363 0
0.988788 -0.053949 0
0.979382 -0.072532 0
0.977675 -0.101349 0
0.949536 -0.141226 0
0.967336 -0.210194 0
0.879664 -0.304518 0
0.996782 -0.734671 0
0.694150 -0.557438 0
0.000529 0.000000 0
0.002089 0.000000 0
0.469008 0.037526 0
0.427136 -0.019236 0
0.465374 -0.040634 0
0.432456 0.102264 0
0.325043 0.041440 0
0.389027 0.223307 0
0.102069 0.210105 0
-0.194439 -0.059538 0
-0.284025 0.021848 0
-0.119488 -0.321828 0
0.168175 -0.455931 0
0.434415 -0.121891 0
0.752044 0.082686 0
0.974045 0.241279 0
1.101520 0.330569 0
1.148832 0.398284 0
1.172875 0.454250 0
1.170273 0.486379 0
1.133933 0.514560 0
1.031071 0.608200 0
0.955911 0.729598 0
0.951250 0.671332 0
0.986842 0.323921 0
0.941007 0.163980 0
0.758237 0.342876 0
0.460039 0.266406 0
0.317659 -0.064211 0
0.286597 -0.296092 0
0.309028 -0.411840 0
0.355981 -0.478045 0
0.419489 -0.512000 0
0.470008 -0.507233 0
0.511835 -0.456661 0
0.569612 -0.354612 0
0.641758 -0.216143 0
0.713754 -0.071632 0
0.783429 0.058872 0
0.847890 0.165878 0
0.913692 0.249918 0
0.971736 0.314087 0
1.017795 0.361154 0
1.080653 0.377029 0
1.171596 0.337129 0
1.242846 0.284320 0
1.232276 0.310004 0
1.186741 0.380564 0
1.168119 0.395623 0
1.045653 0.414444 0
0.869857 0.428978 0
0.791449 0.301361 0
0.754672 0.059276 0
0.712128 -0.174576 0
0.680936 -0.314612 0
0.689460 -0.327439 0
0.746226 -0.246873 0
0.809355 -0.149178 0
0.829126 -0.114518 0
0.812243 -0.165857 0
0.786335 -0.258183 0
0.775233 -0.336420 0
0.797620 -0.371523 0
0.860015 -0.363088 0
0.939920 -0.333592 0
0.990348 -0.315624 0
0.975213 -0.331018 0
0.902299 -0.369463 0
0.804613 -0.397331 0
0.721870 -0.388161 0
0.668041 -0.338183 0
0.642733 -0.261272 0
0.638574 -0.175878 0
0.648439 -0.093862 0
0.667156 -0.024293 0
0.696265 0.024859 0
0.735852 0.046617 0
0.748348 0.053520 0
1.000000 -0.000254 0
1.000006 -0.000782 0
1.000003 -0.001309 0
1.000015 -0.001856 0
1.000134 -0.002576 0
0.999835 -0.003183 0
1.000007 -0.004343 0
0.999274 -0.005778 0
0.999380 -0.007245 0
0.998588 -0.008966 0
0.998359 -0.012400 0
0.995035 -0.015510 0
0.995670 -0.020292 0
0.988463 -0.024646 0
0.989092 -0.036087 0
0.975427 -0.046003 0
0.972207 -0.066779 0
0.950523 -0.075884 0
0.934634 -0.133170 0
0.888692 -0.147376 0
0.822072 -0.318566 0
0.730312 -0.415290 0
0.000000 -0.001128 0
-0.592569 0.141124 0
-0.508700 0.000000 0
0.000000 0.000000 0
0.031548 -0.063247 0
-0.016048 -0.027734 0
-0.013900 0.143774 0
0.231118 0.085004 0
-0.287830 0.291445 0
-0.430222 0.553407 0
-0.777681 0.280177 0
-0.773855 -0.179147 0
-0.317475 -0.587471 0
-0.535615 -0.614810 0
-0.161989 -0.486456 0
0.221842 -0.326683 0
0.584639 -0.041198 0
0.826167 0.203124 0
0.980367 0.350730 0
1.061856 0.420039 0
1.097600 0.475791 0
1.109297 0.537285 0
1.101725 0.623458 0
1.120926 0.688859 0
1.157930 0.649733 0
1.101004 0.524991 0
0.821166 0.462492 0
0.664343 0.441398 0
0.672109 0.267882 0
0.596591 -0.010650 0
0.512374 -0.232388 0
0.464970 -0.376769 0
0.412989 -0.481259 0
0.410629 -0.544846 0
0.448299 -0.546895 0
0.495645 -0.505858 0
0.551424 -0.423967 0
0.626505 -0.293554 0
0.716883 -0.141970 0
0.804923 -0.002951 0
0.874363 0.105473 0
0.937998 0.184815 0
1.013799 0.250121 0
1.096124 0.289459 0
1.182625 0.280143 0
1.230912 0.250441 0
1.221214 0.256435 0
1.207218 0.302512 0
1.201236 0.352653 0
1.123159 0.466470 0
0.975720 0.620042 0
0.922811 0.566049 0
0.943045 0.325773 0
0.941531 0.099360 0
0.903679 -0.087142 0
0.819909 -0.219951 0
0.708462 -0.271580 0
0.613143 -0.251556 0
0.584638 -0.207033 0
0.628713 -0.192510 0
0.709905 -0.223843 0
0.785037 -0.279387 0
0.829351 -0.338259 0
0.845019 -0.387832 0
0.859615 -0.414044 0
0.899814 -0.405909 0
0.959874 -0.367270 0
1.003180 -0.324425 0
0.998392 -0.299734 0
0.940322 -0.296952 0
0.852541 -0.296481 0
0.768672 -0.273454 0
0.706997 -0.226581 0
0.672471 -0.166331 0
0.660521 -0.102856 0
0.666825 -0.048552 0
0.687274 -0.010673 0
0.707793 0.021196 0
0.715914 0.041366 0
1.000000 -0.000263 0
1.000015 -0.000760 0
0.999920 -0.001271 0
0.999987 -0.001956 0
0.999798 -0.002311 0
0.999663 -0.003232 0
0.999511 -0.003955 0
0.999435 -0.005320 0
0.998423 -0.006789 0
0.997839 -0.008734 0
0.996677 -0.009799 0
0.994286 -0.013689 0
0.991146 -0.015822 0
0.987190 -0.023062 0
0.983472 -0.027327 0
0.971061 -0.037065 0
0.964085 -0.047630 0
0.931195 -0.063777 0
0.929334 -0.079395 0
0.831820 -0.097632 0
0.829133 -0.146139 0
0.495260 0.012363 0
0.372025 0.097837 0
0.000000 0.000000 0
0.000000 0.000000 0
0.000000 0.000000 0
0.000000 0.000000 0
-0.054082 0.013983 0
-0.025467 -0.144897 0
-0.265769 0.315374 0
-0.736244 0.884650 0
-0.797003 0.699958 0
-0.460217 0.284099 0
-0.359326 -0.438354 0
-0.300712 -0.560064 0
-0.354082 -0.611413 0
-0.210165 -0.879345 0
-0.027349 -0.663939 0
0.266357 -0.363041 0
0.550909 -0.065155 0
0.792327 0.162599 0
0.939282 0.337021 0
1.022598 0.438941 0
1.060039 0.510439 0
1.082847 0.596575 0
1.105398 0.673396 0
1.101189 0.691257 0
1.053097 0.660688 0
0.982127 0.600643 0
1.001143 0.491935 0
1.100031 0.334159 0
1.069464 0.095525 0
0.875063 -0.164470 0
0.646926 -0.312455 0
0.514012 -0.423704 0
0.453150 -0.547310 0
0.458339 -0.592250 0