# vtk DataFile Version 2.0
generated by CFD-lab course output (written by Tobias Neckel) 
ASCII

DATASET STRUCTURED_GRID
DIMENSIONS  101 21 1 
POINTS 2121 float

0.000000 0.000000 0
0.100000 0.000000 0
0.200000 0.000000 0
0.300000 0.000000 0
0.400000 0.000000 0
0.500000 0.000000 0
0.600000 0.000000 0
0.700000 0.000000 0
0.800000 0.000000 0
0.900000 0.000000 0
1.000000 0.000000 0
1.100000 0.000000 0
1.200000 0.000000 0
1.300000 0.000000 0
1.400000 0.000000 0
1.500000 0.000000 0
1.600000 0.000000 0
1.700000 0.000000 0
1.800000 0.000000 0
1.900000 0.000000 0
2.000000 0.000000 0
2.100000 0.000000 0
2.200000 0.000000 0
2.300000 0.000000 0
2.400000 0.000000 0
2.500000 0.000000 0
2.600000 0.000000 0
2.700000 0.000000 0
2.800000 0.000000 0
2.900000 0.000000 0
3.000000 0.000000 0
3.100000 0.000000 0
3.200000 0.000000 0
3.300000 0.000000 0
3.400000 0.000000 0
3.500000 0.000000 0
3.600000 0.000000 0
3.700000 0.000000 0
3.800000 0.000000 0
3.900000 0.000000 0
4.000000 0.000000 0
4.100000 0.000000 0
4.200000 0.000000 0
4.300000 0.000000 0
4.400000 0.000000 0
4.500000 0.000000 0
4.600000 0.000000 0
4.700000 0.000000 0
4.800000 0.000000 0
4.900000 0.000000 0
5.000000 0.000000 0
5.100000 0.000000 0
5.200000 0.000000 0
5.300000 0.000000 0
5.400000 0.000000 0
5.500000 0.000000 0
5.600000 0.000000 0
5.700000 0.000000 0
5.800000 0.000000 0
5.900000 0.000000 0
6.000000 0.000000 0
6.100000 0.000000 0
6.200000 0.000000 0
6.300000 0.000000 0
6.400000 0.000000 0
6.500000 0.000000 0
6.600000 0.000000 0
6.700000 0.000000 0
6.800000 0.000000 0
6.900000 0.000000 0
7.000000 0.000000 0
7.100000 0.000000 0
7.200000 0.000000 0
7.300000 0.000000 0
7.400000 0.000000 0
7.500000 0.000000 0
7.600000 0.000000 0
7.700000 0.000000 0
7.800000 0.000000 0
7.900000 0.000000 0
8.000000 0.000000 0
8.100000 0.000000 0
8.200000 0.000000 0
8.300000 0.000000 0
8.400000 0.000000 0
8.500000 0.000000 0
8.600000 0.000000 0
8.700000 0.000000 0
8.800000 0.000000 0
8.900000 0.000000 0
9.000000 0.000000 0
9.100000 0.000000 0
9.200000 0.000000 0
9.300000 0.000000 0
9.400000 0.000000 0
9.500000 0.000000 0
9.600000 0.000000 0
9.700000 0.000000 0
9.800000 0.000000 0
9.900000 0.000000 0
10.000000 0.000000 0
0.000000 0.100000 0
0.100000 0.100000 0
0.200000 0.100000 0
0.300000 0.100000 0
0.400000 0.100000 0
0.500000 0.100000 0
0.600000 0.100000 0
0.700000 0.100000 0
0.800000 0.100000 0
0.900000 0.100000 0
1.000000 0.100000 0
1.100000 0.100000 0
1.200000 0.100000 0
1.300000 0.100000 0
1.400000 0.100000 0
1.500000 0.100000 0
1.600000 0.100000 0
1.700000 0.100000 0
1.800000 0.100000 0
1.900000 0.100000 0
2.000000 0.100000 0
2.100000 0.100000 0
2.200000 0.100000 0
2.300000 0.100000 0
2.400000 0.100000 0
2.500000 0.100000 0
2.600000 0.100000 0
2.700000 0.100000 0
2.800000 0.100000 0
2.900000 0.100000 0
3.000000 0.100000 0
3.100000 0.100000 0
3.200000 0.100000 0
3.300000 0.100000 0
3.400000 0.100000 0
3.500000 0.100000 0
3.600000 0.100000 0
3.700000 0.100000 0
3.800000 0.100000 0
3.900000 0.100000 0
4.000000 0.100000 0
4.100000 0.100000 0
4.200000 0.100000 0
4.300000 0.100000 0
4.400000 0.100000 0
4.500000 0.100000 0
4.600000 0.100000 0
4.700000 0.100000 0
4.800000 0.100000 0
4.900000 0.100000 0
5.000000 0.100000 0
5.100000 0.100000 0
5.200000 0.100000 0
5.300000 0.100000 0
5.400000 0.100000 0
5.500000 0.100000 0
5.600000 0.100000 0
5.700000 0.100000 0
5.800000 0.100000 0
5.900000 0.100000 0
6.000000 0.100000 0
6.100000 0.100000 0
6.200000 0.100000 0
6.300000 0.100000 0
6.400000 0.100000 0
6.500000 0.100000 0
6.600000 0.100000 0
6.700000 0.100000 0
6.800000 0.100000 0
6.900000 0.100000 0
7.000000 0.100000 0
7.100000 0.100000 0
7.200000 0.100000 0
7.300000 0.100000 0
7.400000 0.100000 0
7.500000 0.100000 0
7.600000 0.100000 0
7.700000 0.100000 0
7.800000 0.100000 0
7.900000 0.100000 0
8.000000 0.100000 0
8.100000 0.100000 0
8.200000 0.100000 0
8.300000 0.100000 0
8.400000 0.100000 0
8.500000 0.100000 0
8.600000 0.100000 0
8.700000 0.100000 0
8.800000 0.100000 0
8.900000 0.100000 0
9.000000 0.100000 0
9.100000 0.100000 0
9.200000 0.100000 0
9.300000 0.100000 0
9.400000 0.100000 0
9.500000 0.100000 0
9.600000 0.100000 0
9.700000 0.100000 0
9.800000 0.100000 0
9.900000 0.100000 0
10.000000 0.100000 0
0.000000 0.200000 0
0.100000 0.200000 0
0.200000 0.200000 0
0.300000 0.200000 0
0.400000 0.200000 0
0.500000 0.200000 0
0.600000 0.200000 0
0.700000 0.200000 0
0.800000 0.200000 0
0.900000 0.200000 0
1.000000 0.200000 0
1.100000 0.200000 0
1.200000 0.200000 0
1.300000 0.200000 0
1.400000 0.200000 0
1.500000 0.200000 0
1.600000 0.200000 0
1.700000 0.200000 0
1.800000 0.200000 0
1.900000 0.200000 0
2.000000 0.200000 0
2.100000 0.200000 0
2.200000 0.200000 0
2.300000 0.200000 0
2.400000 0.200000 0
2.500000 0.200000 0
2.600000 0.200000 0
2.700000 0.200000 0
2.800000 0.200000 0
2.900000 0.200000 0
3.000000 0.200000 0
3.100000 0.200000 0
3.200000 0.200000 0
3.300000 0.200000 0
3.400000 0.200000 0
3.500000 0.200000 0
3.600000 0.200000 0
3.700000 0.200000 0
3.800000 0.200000 0
3.900000 0.200000 0
4.000000 0.200000 0
4.100000 0.200000 0
4.200000 0.200000 0
4.300000 0.200000 0
4.400000 0.200000 0
4.500000 0.200000 0
4.600000 0.200000 0
4.700000 0.200000 0
4.800000 0.200000 0
4.900000 0.200000 0
5.000000 0.200000 0
5.100000 0.200000 0
5.200000 0.200000 0
5.300000 0.200000 0
5.400000 0.200000 0
5.500000 0.200000 0
5.600000 0.200000 0
5.700000 0.200000 0
5.800000 0.200000 0
5.900000 0.200000 0
6.000000 0.200000 0
6.100000 0.200000 0
6.200000 0.200000 0
6.300000 0.200000 0
6.400000 0.200000 0
6.500000 0.200000 0
6.600000 0.200000 0
6.700000 0.200000 0
6.800000 0.200000 0
6.900000 0.200000 0
7.000000 0.200000 0
7.100000 0.200000 0
7.200000 0.200000 0
7.300000 0.200000 0
7.400000 0.200000 0
7.500000 0.200000 0
7.600000 0.200000 0
7.700000 0.200000 0
7.800000 0.200000 0
7.900000 0.200000 0
8.000000 0.200000 0
8.100000 0.200000 0
8.200000 0.200000 0
8.300000 0.200000 0
8.400000 0.200000 0
8.500000 0.200000 0
8.600000 0.200000 0
8.700000 0.200000 0
8.800000 0.200000 0
8.900000 0.200000 0
9.000000 0.200000 0
9.100000 0.200000 0
9.200000 0.200000 0
9.300000 0.200000 0
9.400000 0.200000 0
9.500000 0.200000 0
9.600000 0.200000 0
9.700000 0.200000 0
9.800000 0.200000 0
9.900000 0.200000 0
10.000000 0.200000 0
0.000000 0.300000 0
0.100000 0.300000 0
0.200000 0.300000 0
0.300000 0.300000 0
0.400000 0.300000 0
0.500000 0.300000 0
0.600000 0.300000 0
0.700000 0.300000 0
0.800000 0.300000 0
0.900000 0.300000 0
1.000000 0.300000 0
1.100000 0.300000 0
1.200000 0.300000 0
1.300000 0.300000 0
1.400000 0.300000 0
1.500000 0.300000 0
1.600000 0.300000 0
1.700000 0.300000 0
1.800000 0.300000 0
1.900000 0.300000 0
2.000000 0.300000 0
2.100000 0.300000 0
2.200000 0.300000 0
2.300000 0.300000 0
2.400000 0.300000 0
2.500000 0.300000 0
2.600000 0.300000 0
2.700000 0.300000 0
2.800000 0.300000 0
2.900000 0.300000 0
3.000000 0.300000 0
3.100000 0.300000 0
3.200000 0.300000 0
3.300000 0.300000 0
3.400000 0.300000 0
3.500000 0.300000 0
3.600000 0.300000 0
3.700000 0.300000 0
3.800000 0.300000 0
3.900000 0.300000 0
4.000000 0.300000 0
4.100000 0.300000 0
4.200000 0.300000 0
4.300000 0.300000 0
4.400000 0.300000 0
4.500000 0.300000 0
4.600000 0.300000 0
4.700000 0.300000 0
4.800000 0.300000 0
4.900000 0.300000 0
5.000000 0.300000 0
5.100000 0.300000 0
5.200000 0.300000 0
5.300000 0.300000 0
5.400000 0.300000 0
5.500000 0.300000 0
5.600000 0.300000 0
5.700000 0.300000 0
5.800000 0.300000 0
5.900000 0.300000 0
6.000000 0.300000 0
6.100000 0.300000 0
6.200000 0.300000 0
6.300000 0.300000 0
6.400000 0.300000 0
6.500000 0.300000 0
6.600000 0.300000 0
6.700000 0.300000 0
6.800000 0.300000 0
6.900000 0.300000 0
7.000000 0.300000 0
7.100000 0.300000 0
7.200000 0.300000 0
7.300000 0.300000 0
7.400000 0.300000 0
7.500000 0.300000 0
7.600000 0.300000 0
7.700000 0.300000 0
7.800000 0.300000 0
7.900000 0.300000 0
8.000000 0.300000 0
8.100000 0.300000 0
8.200000 0.300000 0
8.300000 0.300000 0
8.400000 0.300000 0
8.500000 0.300000 0
8.600000 0.300000 0
8.700000 0.300000 0
8.800000 0.300000 0
8.900000 0.300000 0
9.000000 0.300000 0
9.100000 0.300000 0
9.200000 0.300000 0
9.300000 0.300000 0
9.400000 0.300000 0
9.500000 0.300000 0
9.600000 0.300000 0
9.700000 0.300000 0
9.800000 0.300000 0
9.900000 0.300000 0
10.000000 0.300000 0
0.000000 0.400000 0
0.100000 0.400000 0
0.200000 0.400000 0
0.300000 0.400000 0
0.400000 0.400000 0
0.500000 0.400000 0
0.600000 0.400000 0
0.700000 0.400000 0
0.800000 0.400000 0
0.900000 0.400000 0
1.000000 0.400000 0
1.100000 0.400000 0
1.200000 0.400000 0
1.300000 0.400000 0
1.400000 0.400000 0
1.500000 0.400000 0
1.600000 0.400000 0
1.700000 0.400000 0
1.800000 0.400000 0
1.900000 0.400000 0
2.000000 0.400000 0
2.100000 0.400000 0
2.200000 0.400000 0
2.300000 0.400000 0
2.400000 0.400000 0
2.500000 0.400000 0
2.600000 0.400000 0
2.700000 0.400000 0
2.800000 0.400000 0
2.900000 0.400000 0
3.000000 0.400000 0
3.100000 0.400000 0
3.200000 0.400000 0
3.300000 0.400000 0
3.400000 0.400000 0
3.500000 0.400000 0
3.600000 0.400000 0
3.700000 0.400000 0
3.800000 0.400000 0
3.900000 0.400000 0
4.000000 0.400000 0
4.100000 0.400000 0
4.200000 0.400000 0
4.300000 0.400000 0
4.400000 0.400000 0
4.500000 0.400000 0
4.600000 0.400000 0
4.700000 0.400000 0
4.800000 0.400000 0
4.900000 0.400000 0
5.000000 0.400000 0
5.100000 0.400000 0
5.200000 0.400000 0
5.300000 0.400000 0
5.400000 0.400000 0
5.500000 0.400000 0
5.600000 0.400000 0
5.700000 0.400000 0
5.800000 0.400000 0
5.900000 0.400000 0
6.000000 0.400000 0
6.100000 0.400000 0
6.200000 0.400000 0
6.300000 0.400000 0
6.400000 0.400000 0
6.500000 0.400000 0
6.600000 0.400000 0
6.700000 0.400000 0
6.800000 0.400000 0
6.900000 0.400000 0
7.000000 0.400000 0
7.100000 0.400000 0
7.200000 0.400000 0
7.300000 0.400000 0
7.400000 0.400000 0
7.500000 0.400000 0
7.600000 0.400000 0
7.700000 0.400000 0
7.800000 0.400000 0
7.900000 0.400000 0
8.000000 0.400000 0
8.100000 0.400000 0
8.200000 0.400000 0
8.300000 0.400000 0
8.400000 0.400000 0
8.500000 0.400000 0
8.600000 0.400000 0
[...]
POINT_DATA 2121 

VECTORS velocity float
0.500000 0.000000 0
0.000003 0.000000 0
0.000008 0.000000 0
0.000006 0.000000 0
0.000000 0.000000 0
-0.000007 0.000000 0
-0.000023 0.000000 0
-0.000070 0.000000 0
-0.000112 0.000000 0
-0.000135 0.000000 0
-0.000163 0.000000 0
-0.000205 0.000000 0
-0.000258 0.000000 0
-0.000320 0.000000 0
-0.000391 0.000000 0
-0.000472 0.000000 0
-0.000560 0.000000 0
-0.000657 0.000000 0
-0.000761 0.000000 0
-0.000873 0.000000 0
-0.000982 0.000000 0
-0.001087 0.000000 0
-0.001194 0.000000 0
-0.001363 0.000000 0
-0.001548 0.000000 0
-0.001640 0.000000 0
-0.001621 0.000000 0
-0.001496 0.000000 0
-0.001211 0.000000 0
-0.000635 0.000000 0
0.000413 0.000000 0
0.001835 0.000000 0
0.003376 0.000000 0
0.004837 0.000000 0
0.006136 0.000000 0
0.007047 0.000000 0
0.007038 0.000000 0
0.010231 0.000000 0
0.011542 0.000000 0
-0.002407 0.000000 0
0.020733 0.000000 0
0.033117 0.000000 0
0.018777 0.000000 0
-0.002142 0.000000 0
-0.023477 0.000000 0
-0.036535 0.000000 0
-0.032780 0.000000 0
-0.027094 0.000000 0
-0.030506 0.000000 0
-0.030114 0.000000 0
-0.026827 0.000000 0
-0.017470 0.000000 0
-0.002293 0.000000 0
0.015682 0.000000 0
0.029717 0.000000 0
0.034829 0.000000 0
0.033481 0.000000 0
0.030114 0.000000 0
0.017041 0.000000 0
0.000234 0.000000 0
0.006086 0.000000 0
-0.000594 0.000000 0
-0.011755 0.000000 0
-0.016229 0.000000 0
-0.009843 0.000000 0
-0.008074 0.000000 0
-0.007206 0.000000 0
-0.005905 0.000000 0
-0.004634 0.000000 0
-0.003527 0.000000 0
-0.002547 0.000000 0
-0.001717 0.000000 0
-0.000928 0.000000 0
0.000840 0.000000 0
0.004492 0.000000 0
0.009441 0.000000 0
0.017332 0.000000 0
0.021348 0.000000 0
0.006820 0.000000 0
-0.010687 0.000000 0
-0.012155 0.000000 0
-0.009362 0.000000 0
-0.007693 0.000000 0
-0.004948 0.000000 0
-0.003797 0.000000 0
-0.004485 0.000000 0
-0.004487 0.000000 0
-0.004440 0.000000 0
-0.004138 0.000000 0
-0.003773 0.000000 0
-0.003388 0.000000 0
-0.002979 0.000000 0
-0.002525 0.000000 0
-0.002006 0.000000 0
-0.001465 0.000000 0
-0.000985 0.000000 0
-0.000657 0.000000 0
-0.000545 0.000000 0
-0.000638 0.000000 0
-0.000914 0.000000 0
-0.001019 0.000000 0
1.000000 0.000351 0
0.999911 0.000862 0
0.999814 0.001034 0
0.999830 0.000905 0
1.000083 0.000624 0
1.000679 0.000269 0
1.001762 -0.000364 0
1.003530 -0.001500 0
1.006206 -0.002643 0
1.009896 -0.003656 0
1.014836 -0.005041 0
1.021357 -0.006868 0
1.029869 -0.009205 0
1.040880 -0.012143 0
1.055024 -0.015802 0
1.073082 -0.020308 0
1.095983 -0.025753 0
1.124764 -0.032126 0
1.160444 -0.039201 0
1.203766 -0.046384 0
1.254758 -0.052558 0
1.311868 -0.056105 0
1.371632 -0.055376 0
1.428125 -0.049955 0
1.475034 -0.040451 0
1.510366 -0.028704 0
1.533447 -0.017036 0
1.544832 -0.007053 0
1.547294 0.000292 0
1.544733 0.006307 0
1.538444 0.014486 0
1.524256 0.026477 0
1.494997 0.041513 0
1.448494 0.058247 0
1.384738 0.074865 0
1.306055 0.086076 0
1.215865 0.094792 0
1.114848 0.148912 0
1.017002 0.099872 0
0.885720 -0.018995 0
0.611251 0.113010 0
0.354274 0.308504 0
0.174235 0.265226 0
0.096882 0.052012 0
0.154414 -0.176408 0
0.366035 -0.303584 0
0.702123 -0.295524 0
1.003756 -0.256918 0
1.241622 -0.246026 0
1.454025 -0.225669 0
1.636747 -0.187296 0
1.776740 -0.119918 0
1.847409 -0.020398 0
1.829164 0.094766 0
1.720846 0.191163 0
1.548984 0.243369 0
1.359576 0.262243 0
1.229481 0.260699 0
1.096856 0.182505 0
0.863872 0.091419 0
0.661592 0.063014 0
0.587566 -0.003431 0
0.611699 -0.115460 0
0.738909 -0.165785 0
0.905067 -0.129909 0
1.030422 -0.094877 0
1.122057 -0.085319 0
1.201742 -0.071502 0
1.265965 -0.055459 0
1.312630 -0.039108 0
1.343208 -0.023386 0
1.358185 -0.008563 0
1.357581 0.007191 0
1.342256 0.030803 0
1.312268 0.064786 0
1.276316 0.109019 0
1.202209 0.184440 0
1.080120 0.224873 0
0.984710 0.127224 0
0.903971 -0.031759 0
0.804280 -0.102733 0
0.759310 -0.094343 0
0.785070 -0.077142 0
0.860343 -0.055288 0
0.948959 -0.040130 0
1.021658 -0.039938 0
1.072307 -0.040016 0
1.113960 -0.035984 0
1.151747 -0.030787 0
1.182128 -0.024619 0
1.206205 -0.018713 0
1.224904 -0.013266 0
1.239071 -0.008173 0
1.249268 -0.003261 0
1.255637 0.001386 0
1.258385 0.005309 0
1.258078 0.007868 0
1.255720 0.008537 0
1.252752 0.006991 0
1.250676 0.001906 0
1.253472 -0.001925 0
1.000000 0.000094 0
1.000432 0.000194 0
1.001155 0.000088 0
1.002123 -0.000261 0
1.003316 -0.000841 0
1.004885 -0.001670 0
1.006937 -0.002844 0
1.009508 -0.004439 0
1.012562 -0.006360 0
1.016653 -0.008627 0
1.021969 -0.011459 0
1.028750 -0.015028 0
1.037322 -0.019520 0
1.048135 -0.025156 0
1.061774 -0.032203 0
1.079007 -0.040957 0
1.100820 -0.051677 0
1.128443 -0.064455 0
1.163290 -0.078994 0
1.206810 -0.094303 0
1.260140 -0.108090 0
1.322273 -0.116865 0
1.391252 -0.116247 0
1.454203 -0.103388 0
1.503253 -0.082229 0
1.539260 -0.058403 0
1.562020 -0.034456 0
1.570916 -0.013840 0
1.569443 0.000100 0
1.565790 0.008848 0
1.565600 0.020482 0
1.563781 0.043449 0
1.545803 0.075760 0
1.504463 0.110257 0
1.443622 0.142435 0
1.365717 0.168869 0
1.269019 0.191203 0
1.164914 0.198864 0
1.106221 0.229129 0
0.885613 0.405751 0
0.600141 0.531447 0
0.542694 0.437016 0
0.567070 0.257396 0
0.544179 0.019826 0
0.503923 -0.269150 0
0.457295 -0.547709 0
0.601012 -0.637722 0
0.896733 -0.539498 0
1.115009 -0.450269 0
1.273462 -0.395126 0
1.387415 -0.322717 0
1.472807 -0.210663 0
1.530517 -0.052424 0
1.555091 0.126561 0
1.540490 0.280179 0
1.476050 0.361267 0
1.361373 0.319500 0
1.179833 0.262718 0
1.009584 0.365607 0
0.862233 0.435261 0
0.800605 0.276303 0
0.829274 0.049892 0
0.850214 -0.151343 0
0.816555 -0.293368 0
0.845657 -0.291513 0
0.955259 -0.216988 0
1.056583 -0.171318 0
1.132783 -0.143906 0
1.196467 -0.110886 0
1.239442 -0.077241 0
1.267618 -0.045551 0
1.280939 -0.014369 0
1.272340 0.015933 0
1.239206 0.045320 0
1.194941 0.065947 0
1.131537 0.110065 0
1.028425 0.196203 0
0.967280 0.217506 0
0.938203 0.176156 0
0.831588 0.180437 0
0.662578 0.144669 0
0.554189 0.019218 0
0.536996 -0.101025 0
0.609132 -0.163880 0
0.728945 -0.161307 0
0.854910 -0.123340 0
0.959700 -0.092293 0
1.033337 -0.079430 0
1.077596 -0.068157 0
1.108802 -0.054448 0
1.133916 -0.042766 0
1.154045 -0.032855 0
1.170954 -0.024352 0
1.186000 -0.016554 0
1.199233 -0.009105 0
1.210698 -0.002428 0
1.220545 0.002678 0
1.228926 0.005338 0
1.236094 0.005057 0
1.242057 -0.000707 0
1.247651 -0.005643 0
1.000000 -0.000077 0
1.000296 -0.000287 0
1.000836 -0.000654 0
1.001606 -0.001254 0
1.002626 -0.002133 0
1.003960 -0.003350 0
1.005682 -0.004988 0
1.007875 -0.007124 0
1.010646 -0.009789 0
1.014229 -0.013066 0
1.018822 -0.017135 0
1.024637 -0.022220 0
1.031960 -0.028593 0
1.041168 -0.036598 0
1.052772 -0.046674 0
1.067493 -0.059352 0
1.086385 -0.075186 0
1.110930 -0.094592 0
1.143075 -0.117562 0
1.185518 -0.143229 0
1.241516 -0.168019 0
1.311376 -0.187214 0
1.403109 -0.187301 0
1.475610 -0.161951 0
1.526035 -0.125505 0
1.561888 -0.087469 0
1.584355 -0.048691 0
1.587456 -0.014479 0
1.573568 0.005412 0
1.561138 0.010152 0
1.568529 0.016500 0
1.588601 0.046269 0
1.587972 0.100828 0
1.551192 0.160427 0
1.487846 0.213606 0
1.410904 0.260679 0
1.323729 0.295598 0
1.226730 0.311710 0
1.096264 0.379174 0
0.956760 0.487086 0
0.991240 0.455927 0
1.043207 0.341576 0
0.990774 0.263745 0
0.994038 0.115160 0
1.021044 -0.089526 0
0.946708 -0.400675 0
0.787009 -0.734961 0
0.803553 -0.770915 0
0.978393 -0.622756 0
1.116199 -0.498075 0
1.183976 -0.386642 0
1.228218 -0.263019 0
1.264171 -0.102683 0
1.295439 0.084792 0
1.318204 0.270205 0
1.292115 0.422484 0
1.171749 0.558459 0
0.951844 0.612489 0
0.857548 0.500104 0
0.987668 0.300397 0
1.092908 0.095974 0
1.056915 -0.053040 0
0.965104 -0.102740 0
0.854341 -0.161227 0
0.779862 -0.268612 0
0.802806 -0.305802 0
0.902850 -0.262841 0
1.017035 -0.211383 0
1.088902 -0.162118 0
1.126291 -0.110258 0
1.153580 -0.064879 0
1.174995 -0.013284 0
1.180339 0.048928 0
1.152354 0.108205 0
1.083566 0.172457 0
0.967785 0.275539 0
0.864181 0.348700 0
0.834161 0.315098 0
0.726670 0.262918 0
0.584067 0.243869 0
0.532696 0.174669 0
0.517547 0.031243 0
0.495927 -0.132082 0
0.506292 -0.247233 0
0.550079 -0.285904 0
0.633974 -0.270689 0
0.751988 -0.218438 0
0.868931 -0.153876 0
0.954852 -0.106248 0
1.004946 -0.080934 0
1.029184 -0.063951 0
1.042619 -0.050300 0
1.054374 -0.040122 0
1.067095 -0.031534 0
1.080282 -0.023308 0
1.093024 -0.015998 0
1.105475 -0.010354 0
1.117660 -0.007006 0
1.129239 -0.006135 0
1.139262 -0.009646 0
1.147340 -0.013010 0
1.000000 -0.000197 0
1.000205 -0.000636 0
1.000591 -0.001219 0
1.001161 -0.002047 0
1.001971 -0.003193 0
1.003029 -0.004726 0
1.004375 -0.006760 0
1.006123 -0.009402 0
1.008417 -0.012717 0
1.011344 -0.016803 0
1.015033 -0.021865 0
1.019647 -0.028169 0
1.025396 -0.036053 0
1.032548 -0.045969 0
1.041476 -0.058528 0
1.052730 -0.074567 0
1.067339 -0.095111 0
1.087025 -0.121141 0
1.113899 -0.153578 0
1.152721 -0.192742 0
1.208929 -0.233947 0
1.286980 -0.278453 0
1.432629 -0.280474 0
1.518378 -0.226313 0
1.560393 -0.168505 0
1.590135 -0.116720 0
1.614793 -0.060025 0
1.612463 -0.003060 0
1.572904 0.026417 0
1.532573 0.013894 0
1.547469 -0.006986 0
1.621700 0.024002 0
1.659605 0.113169 0
1.628821 0.210378 0
1.544756 0.282720 0
1.440606 0.332985 0
1.337994 0.375379 0
1.235494 0.426328 0
1.117235 0.499099 0
1.068572 0.510776 0
1.088424 0.444999 0
0.954923 0.437485 0
0.858117 0.306566 0
0.917593 -0.010445 0
0.955394 -0.221822 0
0.975688 -0.313675 0
0.858459 -0.494566 0
0.719147 -0.730883 0
0.772963 -0.762916 0
0.928261 -0.600709 0
1.037061 -0.434736 0
1.051727 -0.290856 0
1.059479 -0.119646 0
1.078227 0.072528 0
1.123174 0.283502 0
1.143041 0.507722 0
1.133346 0.659772 0
1.218765 0.576919 0
1.252141 0.329783 0
1.130311 0.199901 0
0.985911 0.207058 0
0.799010 0.177696 0
0.643808 0.051232 0
0.619959 -0.108125 0
0.639667 -0.239976 0
0.649753 -0.339974 0
0.689149 -0.385547 0
0.786324 -0.329957 0
0.881772 -0.220140 0
0.934879 -0.141915 0
0.954866 -0.094254 0
0.980947 -0.041126 0
1.039218 0.038579 0
1.073256 0.142094 0
1.052393 0.250518 0
1.024862 0.329454 0
1.026850 0.329829 0
0.933760 0.355020 0
0.749882 0.426252 0
0.652405 0.374414 0
0.720851 0.211191 0
0.820376 0.055989 0
0.827982 -0.089766 0
0.721933 -0.218029 0
0.617421 -0.288986 0
0.570686 -0.325245 0
0.590326 -0.327245 0
0.669153 -0.282289 0
0.778315 -0.204168 0
0.869764 -0.128775 0
0.916255 -0.080434 0
0.926035 -0.058040 0
0.925520 -0.048823 0
0.931767 -0.042457 0
0.944682 -0.035028 0
0.957303 -0.027616 0
0.969468 -0.021953 0
0.986184 -0.018420 0
1.006770 -0.016539 0
1.019998 -0.018802 0
1.029656 -0.021838 0
1.000000 -0.000278 0
1.000130 -0.000872 0
1.000365 -0.001608 0
1.000694 -0.002631 0
1.001300 -0.004000 0
1.002074 -0.005755 0
1.002971 -0.008083 0
1.004159 -0.011166 0
1.005922 -0.015011 0
1.008088 -0.019681 0
1.010723 -0.025440 0
1.013943 -0.032587 0
1.017848 -0.041497 0
1.022567 -0.052680 0
1.028251 -0.066854 0
1.034977 -0.085211 0
1.043570 -0.109479 0
1.056206 -0.141150 0
1.073225 -0.183255 0
1.103706 -0.238257 0
1.149197 -0.302276 0
1.235457 -0.410910 0
1.491177 -0.418695 0
1.560394 -0.289713 0
1.553585 -0.197259 0
1.552364 -0.141868 0
1.575018 -0.071024 0
1.596671 0.027405 0
1.496091 0.085309 0
1.386735 0.035587 0
1.381078 -0.072633 0
1.573897 -0.065869 0
1.705088 0.093705 0
1.721612 0.275273 0
1.652770 0.401818 0
1.522122 0.467443 0
1.376975 0.500709 0
1.249371 0.532468 0
1.170174 0.546096 0
1.170664 0.515896 0
1.108504 0.569576 0
0.961641 0.571885 0
0.925550 0.301074 0
0.821343 0.017882 0
0.693365 -0.147622 0
0.684476 -0.303740 0
0.755517 -0.478420 0
0.765523 -0.685420 0
0.726619 -0.831871 0
0.783286 -0.762175 0
0.908016 -0.510106 0
0.973675 -0.285436 0
0.992952 -0.129184 0
1.001798 0.021098 0
1.059538 0.205390 0
1.188727 0.412312 0
1.303064 0.482736 0
1.245731 0.493693 0
1.013900 0.588558 0
0.747147 0.566628 0
0.559308 0.427275 0
0.440134 0.289065 0
0.417984 0.076313 0
0.464594 -0.157084 0
0.519448 -0.298404 0
0.569913 -0.355283 0
0.594594 -0.399411 0
0.594561 -0.404005 0
0.612553 -0.310671 0
0.626610 -0.183349 0
0.607288 -0.110946 0
0.612065 -0.097633 0
0.713547 -0.043378 0
0.825056 0.095032 0
0.889995 0.220855 0
0.911868 0.301084 0
0.846271 0.439804 0
0.698582 0.592069 0
0.674545 0.544276 0
0.809307 0.272903 0
0.898447 0.006701 0
0.872716 -0.075886 0
0.820742 -0.033636 0
0.746780 -0.036668 0
0.687592 -0.134654 0
0.650625 -0.243590 0
0.620179 -0.316901 0
0.602848 -0.341861 0
0.629996 -0.306854 0
0.704797 -0.218869 0
0.785901 -0.120218 0
0.830218 -0.059560 0
0.834585 -0.045848 0
0.819775 -0.050691 0
0.802382 -0.048838 0
0.790135 -0.040778 0
0.786137 -0.039229 0
0.798454 -0.044303 0
0.828475 -0.039944 0
0.870533 -0.032526 0
0.883918 -0.032397 0
1.000000 -0.000323 0
1.000056 -0.000997 0
1.000253 -0.001782 0
1.000233 -0.002981 0
1.000685 -0.004572 0
1.001155 -0.006399 0
1.001457 -0.008846 0
1.001850 -0.012355 0
1.003300 -0.016645 0
1.004663 -0.021605 0
1.006152 -0.027723 0
1.007875 -0.035297 0
1.009800 -0.044681 0
1.011937 -0.056372 0
1.014286 -0.070934 0
1.015610 -0.089884 0
1.016455 -0.116338 0
1.022077 -0.150794 0
1.021394 -0.201076 0
1.041892 -0.268712 0
1.049858 -0.365696 0
1.155702 -0.620429 0
1.487877 -0.605409 0
1.394622 -0.288719 0
1.280486 -0.160471 0
1.198531 -0.138155 0
1.161370 -0.104339 0
1.274000 0.075872 0
1.303952 0.236357 0
0.995697 0.128901 0
0.754334 -0.194151 0
1.170890 -0.300011 0
1.460167 -0.034550 0
1.577948 0.262694 0
1.621286 0.482209 0
1.575460 0.608781 0
1.466092 0.648128 0
1.332394 0.633128 0
1.233028 0.577805 0
1.178611 0.572445 0
1.068790 0.654024 0
1.037120 0.620439 0
0.980573 0.446862 0
0.839613 0.221738 0
0.808232 -0.084956 0
0.851995 -0.375827 0
0.894864 -0.575613 0
0.898945 -0.701986 0
0.863710 -0.780679 0
0.835779 -0.782106 0
0.879998 -0.625123 0
0.930557 -0.375794 0
0.881446 -0.147770 0
0.835470 0.005942 0
0.890599 0.096572 0
0.968610 0.264197 0
0.894479 0.602769 0
0.684978 0.866082 0
0.584454 0.828367 0
0.593761 0.654495 0
0.524071 0.514072 0
0.463857 0.319022 0
0.479654 0.026773 0
0.532926 -0.209587 0
0.560221 -0.345293 0
0.541731 -0.415119 0
0.545636 -0.410194 0
0.587599 -0.347914 0
0.649694 -0.252185 0
0.684058 -0.136648 0
0.697339 -0.079707 0
0.690511 -0.147382 0
0.600206 -0.174411 0
0.529709 -0.034351 0
0.557467 0.163708 0
0.607202 0.373180 0
0.641663 0.543118 0
0.761003 0.526748 0
0.932981 0.315530 0
0.978028 0.150515 0
0.831859 0.147786 0
0.647992 0.133697 0
0.566963 0.036173 0
0.615561 -0.084875 0
0.684027 -0.192826 0
0.717648 -0.257828 0
0.730523 -0.279465 0
0.715789 -0.292102 0
0.668204 -0.306112 0
0.640142 -0.284675 0
0.675368 -0.205850 0
0.735316 -0.106718 0
0.760804 -0.038374 0
0.742973 -0.010249 0
0.715550 -0.005383 0
0.709490 -0.011364 0
0.728697 -0.030265 0
0.738754 -0.060753 0
0.738770 -0.088612 0
0.772983 -0.074239 0
0.783467 -0.048888 0
1.000000 -0.000330 0
0.999981 -0.001121 0
1.000166 -0.001783 0
1.000068 -0.003062 0
1.000145 -0.004924 0
1.000365 -0.006530 0
1.000237 -0.008779 0
0.999857 -0.013011 0
1.000349 -0.017825 0
1.001013 -0.022536 0
1.001563 -0.028655 0
1.001867 -0.036238 0
1.001672 -0.045560 0
1.001850 -0.057163 0
1.000993 -0.070526 0
0.998171 -0.087380 0
0.993291 -0.115943 0
0.987519 -0.146088 0
0.977524 -0.203069 0
0.968006 -0.266719 0
0.936608 -0.416083 0
1.023565 -0.848926 0
0.722950 -0.575294 0
-0.002118 0.000000 0
0.000253 0.000000 0
0.447763 -0.021590 0
0.364256 -0.146495 0
0.224415 -0.115170 0
0.509417 0.363608 0
0.053962 0.585200 0
0.101543 -0.247828 0
0.257977 -0.771706 0
0.784710 -0.313356 0
1.149151 0.114150 0
1.313382 0.404306 0
1.366350 0.622636 0
1.359845 0.743772 0
1.305071 0.765531 0
1.231424 0.699878 0
1.077205 0.680134 0
0.923794 0.711069 0
0.907190 0.660100 0
0.856491 0.498579 0
0.843526 0.190221 0
0.871990 -0.160004 0
0.876957 -0.390372 0
0.880853 -0.525370 0
0.876304 -0.654267 0
0.861729 -0.768706 0
0.828789 -0.778461 0
0.790568 -0.604882 0
0.744424 -0.286886 0
0.653274 -0.034098 0
0.585955 0.011945 0
0.571275 0.072251 0
0.443086 0.408434 0
0.265512 0.766368 0
0.322369 0.803718 0
0.491756 0.679777 0
0.573294 0.627013 0
0.587188 0.557180 0
0.628022 0.333483 0
0.627703 0.007246 0
0.609195 -0.237649 0
0.656110 -0.307208 0
0.668124 -0.340696 0
0.577924 -0.445277 0
0.517492 -0.508061 0
0.609457 -0.407126 0
0.767162 -0.230992 0
0.877239 -0.117396 0
0.857785 -0.000498 0
0.675659 0.117426 0
0.519889 0.137774 0
0.503561 0.143364 0
0.596333 0.216891 0
0.761068 0.286006 0
0.893565 0.300754 0
0.885396 0.327253 0
0.733005 0.374028 0
0.608530 0.336740 0
0.587474 0.189014 0
0.617112 -0.001202 0
0.698617 -0.153729 0
0.792063 -0.236737 0
0.811378 -0.290082 0
0.783476 -0.315038 0
0.784789 -0.279537 0
0.790685 -0.231202 0
0.749134 -0.226028 0
0.678655 -0.215386 0
0.643749 -0.144990 0
0.655962 -0.053500 0
0.683272 -0.005432 0
0.719657 -0.015349 0
0.783363 -0.053919 0
0.848327 -0.068488 0
0.874072 -0.054370 0
0.884715 -0.074166 0
0.898605 -0.077216 0
0.905384 -0.054153 0
1.000000 -0.000301 0
0.999936 -0.001159 0
1.000015 -0.001869 0
1.000082 -0.002960 0
0.999798 -0.004871 0
0.999585 -0.006493 0
0.999757 -0.008340 0
0.998960 -0.012468 0
0.998650 -0.017804 0
0.997994 -0.022821 0
0.998272 -0.028580 0
0.995291 -0.035410 0
0.996153 -0.044664 0
0.992101 -0.055691 0
0.991940 -0.067256 0
0.979861 -0.082181 0
0.981928 -0.105685 0
0.951857 -0.135026 0
0.956272 -0.181561 0
0.878690 -0.227795 0
0.871086 -0.421253 0
0.647945 -0.489089 0
0.000000 0.002197 0
-0.609186 0.191108 0
-0.516299 0.000000 0
0.000000 0.000000 0
-0.036895 0.103708 0
-0.140744 -0.069289 0
-0.174838 0.406803 0
-0.249465 0.536772 0
-0.017083 -0.398170 0
-0.300723 -0.983182 0
-0.068174 -0.925728 0
0.526956 -0.265980 0
0.832884 0.265011 0
1.021769 0.562316 0
1.137790 0.709405 0
1.176554 0.761548 0
1.101330 0.805670 0
0.954538 0.880076 0
0.899231 0.824039 0
0.874675 0.687740 0
0.820648 0.510524 0
0.802995 0.206238 0
0.737344 -0.118387 0
0.652463 -0.384691 0
0.628126 -0.574960 0
0.685463 -0.682862 0
0.732111 -0.733164 0
0.711007 -0.710942 0
0.653264 -0.540758 0
0.610517 -0.238501 0
0.598021 0.010699 0
0.570442 0.087941 0
0.432937 0.239442 0
0.247637 0.569961 0
0.241900 0.723486 0
0.389837 0.639838 0
0.492234 0.577443 0
0.563802 0.559064 0
0.684858 0.459346 0
0.816999 0.278509 0
0.864478 0.045602 0
0.791673 -0.237992 0
0.665583 -0.404221 0
0.673370 -0.336931 0
0.646108 -0.259560 0
0.479969 -0.379444 0
0.333546 -0.501853 0
0.373402 -0.404428 0
0.479308 -0.170326 0
0.532413 0.054201 0
0.597148 0.163488 0
0.674377 0.137749 0
0.694822 0.087266 0
0.683880 0.115676 0
0.664207 0.245888 0
0.604697 0.402423 0
0.530613 0.476092 0
0.536011 0.427384 0
0.642058 0.293321 0
0.775100 0.125118 0
0.853415 -0.074967 0
0.844688 -0.259823 0
0.845534 -0.305583 0
0.874701 -0.249237 0
0.873630 -0.252872 0
0.829840 -0.299307 0
0.798150 -0.270452 0
0.778836 -0.172640 0
0.731284 -0.100460 0
0.689199 -0.084019 0
0.690543 -0.077891 0
0.724106 -0.073937 0
0.758264 -0.105467 0
0.827683 -0.140028 0
0.902541 -0.120968 0
0.947701 -0.097134 0
0.958372 -0.113139 0
0.936719 -0.094902 0
0.939572 -0.062925 0
1.000000 -0.000264 0
1.000022 -0.001133 0
0.999867 -0.001929 0
1.000013 -0.002846 0
0.999410 -0.004430 0
0.999175 -0.006491 0
0.999162 -0.008155 0
0.999521 -0.011905 0
0.997190 -0.016863 0
0.996615 -0.022161 0
0.995044 -0.025955 0
0.994774 -0.034121 0
0.989608 -0.042369 0
0.987582 -0.052950 0
0.978865 -0.058286 0
0.977394 -0.077367 0
0.958423 -0.087939 0
0.945706 -0.120431 0
0.908761 -0.129903 0
0.856544 -0.181533 0
0.800286 -0.185338 0
0.461371 -0.052922 0
0.364088 -0.002431 0
0.000000 0.000000 0
0.000000 0.000000 0
0.000000 0.000000 0
0.000000 0.000000 0
0.124761 0.043824 0
-0.062014 0.472325 0
0.272256 0.427441 0
0.065580 -0.196574 0
-0.282781 -0.720618 0
-0.406874 -1.141040 0
-0.096012 -0.786910 0
0.396568 -0.090507 0
0.715005 0.317728 0
0.882445 0.588985 0
0.930697 0.801988 0
0.920187 0.921893 0
0.960076 0.882234 0
1.002315 0.790930 0
0.904282 0.738682 0
0.875970 0.570258 0
0.873264 0.273525 0
0.813925 -0.009472 0
0.734102 -0.281154 0
0.633082 -0.558370 0
0.590734 -0.758251 0
0.649637 -0.794248 0
0.691251 -0.699612 0
0.677895 -0.504393 0
0.662371 -0.231644 0
0.671381 0.005979 0
0.652061 0.177030 0
0.532277 0.395056 0
0.484670 0.599471 0
0.592041 0.624168 0