# vtk DataFile Version 2.0
generated by CFD-lab course output (written by Tobias Neckel) 
ASCII

DATASET STRUCTURED_GRID
DIMENSIONS  101 21 1 
POINTS 2121 float

0.000000 0.000000 0
0.100000 0.000000 0
0.200000 0.000000 0
0.300000 0.000000 0
0.400000 0.000000 0
0.500000 0.000000 0
0.600000 0.000000 0
0.700000 0.000000 0
0.800000 0.000000 0
0.900000 0.000000 0
1.000000 0.000000 0
1.100000 0.000000 0
1.200000 0.000000 0
1.300000 0.000000 0
1.400000 0.000000 0
1.500000 0.000000 0
1.600000 0.000000 0
1.700000 0.000000 0
1.800000 0.000000 0
1.900000 0.000000 0
2.000000 0.000000 0
2.100000 0.000000 0
2.200000 0.000000 0
2.300000 0.000000 0
2.400000 0.000000 0
2.500000 0.000000 0
2.600000 0.000000 0
2.700000 0.000000 0
2.800000 0.000000 0
2.900000 0.000000 0
3.000000 0.000000 0
3.100000 0.000000 0
3.200000 0.000000 0
3.300000 0.000000 0
3.400000 0.000000 0
3.500000 0.000000 0
3.600000 0.000000 0
3.700000 0.000000 0
3.800000 0.000000 0
3.900000 0.000000 0
4.000000 0.000000 0
4.100000 0.000000 0
4.200000 0.000000 0
4.300000 0.000000 0
4.400000 0.000000 0
4.500000 0.000000 0
4.600000 0.000000 0
4.700000 0.000000 0
4.800000 0.000000 0
4.900000 0.000000 0
5.000000 0.000000 0
5.100000 0.000000 0
5.200000 0.000000 0
5.300000 0.000000 0
5.400000 0.000000 0
5.500000 0.000000 0
5.600000 0.000000 0
5.700000 0.000000 0
5.800000 0.000000 0
5.900000 0.000000 0
6.000000 0.000000 0
6.100000 0.000000 0
6.200000 0.000000 0
6.300000 0.000000 0
6.400000 0.000000 0
6.500000 0.000000 0
6.600000 0.000000 0
6.700000 0.000000 0
6.800000 0.000000 0
6.900000 0.000000 0
7.000000 0.000000 0
7.100000 0.000000 0
7.200000 0.000000 0
7.300000 0.000000 0
7.400000 0.000000 0
7.500000 0.000000 0
7.600000 0.000000 0
7.700000 0.000000 0
7.800000 0.000000 0
7.900000 0.000000 0
8.000000 0.000000 0
8.100000 0.000000 0
8.200000 0.000000 0
8.300000 0.000000 0
8.400000 0.000000 0
8.500000 0.000000 0
8.600000 0.000000 0
8.700000 0.000000 0
8.800000 0.000000 0
8.900000 0.000000 0
9.000000 0.000000 0
9.100000 0.000000 0
9.200000 0.000000 0
9.300000 0.000000 0
9.400000 0.000000 0
9.500000 0.000000 0
9.600000 0.000000 0
9.700000 0.000000 0
9.800000 0.000000 0
9.900000 0.000000 0
10.000000 0.000000 0
0.000000 0.100000 0
0.100000 0.100000 0
0.200000 0.100000 0
0.300000 0.100000 0
0.400000 0.100000 0
0.500000 0.100000 0
0.600000 0.100000 0
0.700000 0.100000 0
0.800000 0.100000 0
0.900000 0.100000 0
1.000000 0.100000 0
1.100000 0.100000 0
1.200000 0.100000 0
1.300000 0.100000 0
1.400000 0.100000 0
1.500000 0.100000 0
1.600000 0.100000 0
1.700000 0.100000 0
1.800000 0.100000 0
1.900000 0.100000 0
2.000000 0.100000 0
2.100000 0.100000 0
2.200000 0.100000 0
2.300000 0.100000 0
2.400000 0.100000 0
2.500000 0.100000 0
2.600000 0.100000 0
2.700000 0.100000 0
2.800000 0.100000 0
2.900000 0.100000 0
3.000000 0.100000 0
3.100000 0.100000 0
3.200000 0.100000 0
3.300000 0.100000 0
3.400000 0.100000 0
3.500000 0.100000 0
3.600000 0.100000 0
3.700000 0.100000 0
3.800000 0.100000 0
3.900000 0.100000 0
4.000000 0.100000 0
4.100000 0.100000 0
4.200000 0.100000 0
4.300000 0.100000 0
4.400000 0.100000 0
4.500000 0.100000 0
4.600000 0.100000 0
4.700000 0.100000 0
4.800000 0.100000 0
4.900000 0.100000 0
5.000000 0.100000 0
5.100000 0.100000 0
5.200000 0.100000 0
5.300000 0.100000 0
5.400000 0.100000 0
5.500000 0.100000 0
5.600000 0.100000 0
5.700000 0.100000 0
5.800000 0.100000 0
5.900000 0.100000 0
6.000000 0.100000 0
6.100000 0.100000 0
6.200000 0.100000 0
6.300000 0.100000 0
6.400000 0.100000 0
6.500000 0.100000 0
6.600000 0.100000 0
6.700000 0.100000 0
6.800000 0.100000 0
6.900000 0.100000 0
7.000000 0.100000 0
7.100000 0.100000 0
7.200000 0.100000 0
7.300000 0.100000 0
7.400000 0.100000 0
7.500000 0.100000 0
7.600000 0.100000 0
7.700000 0.100000 0
7.800000 0.100000 0
7.900000 0.100000 0
8.000000 0.100000 0
8.100000 0.100000 0
8.200000 0.100000 0
8.300000 0.100000 0
8.400000 0.100000 0
8.500000 0.100000 0
8.600000 0.100000 0
8.700000 0.100000 0
8.800000 0.100000 0
8.900000 0.100000 0
9.000000 0.100000 0
9.100000 0.100000 0
9.200000 0.100000 0
9.300000 0.100000 0
9.400000 0.100000 0
9.500000 0.100000 0
9.600000 0.100000 0
9.700000 0.100000 0
9.800000 0.100000 0
9.900000 0.100000 0
10.000000 0.100000 0
0.000000 0.200000 0
0.100000 0.200000 0
0.200000 0.200000 0
0.300000 0.200000 0
0.400000 0.200000 0
0.500000 0.200000 0
0.600000 0.200000 0
0.700000 0.200000 0
0.800000 0.200000 0
0.900000 0.200000 0
1.000000 0.200000 0
1.100000 0.200000 0
1.200000 0.200000 0
1.300000 0.200000 0
1.400000 0.200000 0
1.500000 0.200000 0
1.600000 0.200000 0
1.700000 0.200000 0
1.800000 0.200000 0
1.900000 0.200000 0
2.000000 0.200000 0
2.100000 0.200000 0
2.200000 0.200000 0
2.300000 0.200000 0
2.400000 0.200000 0
2.500000 0.200000 0
2.600000 0.200000 0
2.700000 0.200000 0
2.800000 0.200000 0
2.900000 0.200000 0
3.000000 0.200000 0
3.100000 0.200000 0
3.200000 0.200000 0
3.300000 0.200000 0
3.400000 0.200000 0
3.500000 0.200000 0
3.600000 0.200000 0
3.700000 0.200000 0
3.800000 0.200000 0
3.900000 0.200000 0
4.000000 0.200000 0
4.100000 0.200000 0
4.200000 0.200000 0
4.300000 0.200000 0
4.400000 0.200000 0
4.500000 0.200000 0
4.600000 0.200000 0
4.700000 0.200000 0
4.800000 0.200000 0
4.900000 0.200000 0
5.000000 0.200000 0
5.100000 0.200000 0
5.200000 0.200000 0
5.300000 0.200000 0
5.400000 0.200000 0
5.500000 0.200000 0
5.600000 0.200000 0
5.700000 0.200000 0
5.800000 0.200000 0
5.900000 0.200000 0
6.000000 0.200000 0
6.100000 0.200000 0
6.200000 0.200000 0
6.300000 0.200000 0
6.400000 0.200000 0
6.500000 0.200000 0
6.600000 0.200000 0
6.700000 0.200000 0
6.800000 0.200000 0
6.900000 0.200000 0
7.000000 0.200000 0
7.100000 0.200000 0
7.200000 0.200000 0
7.300000 0.200000 0
7.400000 0.200000 0
7.500000 0.200000 0
7.600000 0.200000 0
7.700000 0.200000 0
7.800000 0.200000 0
7.900000 0.200000 0
8.000000 0.200000 0
8.100000 0.200000 0
8.200000 0.200000 0
8.300000 0.200000 0
8.400000 0.200000 0
8.500000 0.200000 0
8.600000 0.200000 0
8.700000 0.200000 0
8.800000 0.200000 0
8.900000 0.200000 0
9.000000 0.200000 0
9.100000 0.200000 0
9.200000 0.200000 0
9.300000 0.200000 0
9.400000 0.200000 0
9.500000 0.200000 0
9.600000 0.200000 0
9.700000 0.200000 0
9.800000 0.200000 0
9.900000 0.200000 0
10.000000 0.200000 0
0.000000 0.300000 0
0.100000 0.300000 0
0.200000 0.300000 0
0.300000 0.300000 0
0.400000 0.300000 0
0.500000 0.300000 0
0.600000 0.300000 0
0.700000 0.300000 0
0.800000 0.300000 0
0.900000 0.300000 0
1.000000 0.300000 0
1.100000 0.300000 0
1.200000 0.300000 0
1.300000 0.300000 0
1.400000 0.300000 0
1.500000 0.300000 0
1.600000 0.300000 0
1.700000 0.300000 0
1.800000 0.300000 0
1.900000 0.300000 0
2.000000 0.300000 0
2.100000 0.300000 0
2.200000 0.300000 0
2.300000 0.300000 0
2.400000 0.300000 0
2.500000 0.300000 0
2.600000 0.300000 0
2.700000 0.300000 0
2.800000 0.300000 0
2.900000 0.300000 0
3.000000 0.300000 0
3.100000 0.300000 0
3.200000 0.300000 0
3.300000 0.300000 0
3.400000 0.300000 0
3.500000 0.300000 0
3.600000 0.300000 0
3.700000 0.300000 0
3.800000 0.300000 0
3.900000 0.300000 0
4.000000 0.300000 0
4.100000 0.300000 0
4.200000 0.300000 0
4.300000 0.300000 0
4.400000 0.300000 0
4.500000 0.300000 0
4.600000 0.300000 0
4.700000 0.300000 0
4.800000 0.300000 0
4.900000 0.300000 0
5.000000 0.300000 0
5.100000 0.300000 0
5.200000 0.300000 0
5.300000 0.300000 0
5.400000 0.300000 0
5.500000 0.300000 0
5.600000 0.300000 0
5.700000 0.300000 0
5.800000 0.300000 0
5.900000 0.300000 0
6.000000 0.300000 0
6.100000 0.300000 0
6.200000 0.300000 0
6.300000 0.300000 0
6.400000 0.300000 0
6.500000 0.300000 0
6.600000 0.300000 0
6.700000 0.300000 0
6.800000 0.300000 0
6.900000 0.300000 0
7.000000 0.300000 0
7.100000 0.300000 0
7.200000 0.300000 0
7.300000 0.300000 0
7.400000 0.300000 0
7.500000 0.300000 0
7.600000 0.300000 0
7.700000 0.300000 0
7.800000 0.300000 0
7.900000 0.300000 0
8.000000 0.300000 0
8.100000 0.300000 0
8.200000 0.300000 0
8.300000 0.300000 0
8.400000 0.300000 0
8.500000 0.300000 0
8.600000 0.300000 0
8.700000 0.300000 0
8.800000 0.300000 0
8.900000 0.300000 0
9.000000 0.300000 0
9.100000 0.300000 0
9.200000 0.300000 0
9.300000 0.300000 0
9.400000 0.300000 0
9.500000 0.300000 0
9.600000 0.300000 0
9.700000 0.300000 0
9.800000 0.300000 0
9.900000 0.300000 0
10.000000 0.300000 0
0.000000 0.400000 0
0.100000 0.400000 0
0.200000 0.400000 0
0.300000 0.400000 0
0.400000 0.400000 0
0.500000 0.400000 0
0.600000 0.400000 0
0.700000 0.400000 0
0.800000 0.400000 0
0.900000 0.400000 0
1.000000 0.400000 0
1.100000 0.400000 0
1.200000 0.400000 0
1.300000 0.400000 0
1.400000 0.400000 0
1.500000 0.400000 0
1.600000 0.400000 0
1.700000 0.400000 0
1.800000 0.400000 0
1.900000 0.400000 0
2.000000 0.400000 0
2.100000 0.400000 0
2.200000 0.400000 0
2.300000 0.400000 0
2.400000 0.400000 0
2.500000 0.400000 0
2.600000 0.400000 0
2.700000 0.400000 0
2.800000 0.400000 0
2.900000 0.400000 0
3.000000 0.400000 0
3.100000 0.400000 0
3.200000 0.400000 0
3.300000 0.400000 0
3.400000 0.400000 0
3.500000 0.400000 0
3.600000 0.400000 0
3.700000 0.400000 0
3.800000 0.400000 0
3.900000 0.400000 0
4.000000 0.400000 0
4.100000 0.400000 0
4.200000 0.400000 0
4.300000 0.400000 0
4.400000 0.400000 0
4.500000 0.400000 0
4.600000 0.400000 0
4.700000 0.400000 0
4.800000 0.400000 0
4.900000 0.400000 0
5.000000 0.400000 0
5.100000 0.400000 0
5.200000 0.400000 0
5.300000 0.400000 0
5.400000 0.400000 0
5.500000 0.400000 0
5.600000 0.400000 0
5.700000 0.400000 0
5.800000 0.400000 0
5.900000 0.400000 0
6.000000 0.400000 0
6.100000 0.400000 0
6.200000 0.400000 0
6.300000 0.400000 0
6.400000 0.400000 0
6.500000 0.400000 0
6.600000 0.400000 0
6.700000 0.400000 0
6.800000 0.400000 0
6.900000 0.400000 0
7.000000 0.400000 0
7.100000 0.400000 0
7.200000 0.400000 0
7.300000 0.400000 0
7.400000 0.400000 0
7.500000 0.400000 0
7.600000 0.400000 0
7.700000 0.400000 0
7.800000 0.400000 0
7.900000 0.400000 0
8.000000 0.400000 0
8.100000 0.400000 0
8.200000 0.400000 0
8.300000 0.400000 0
8.400000 0.400000 0
8.500000 0.400000 0
8.600000 0.400000 0
[...]
POINT_DATA 2121 

VECTORS velocity float
0.500000 0.000000 0
-0.000011 0.000000 0
-0.000015 0.000000 0
-0.000019 0.000000 0
-0.000018 0.000000 0
-0.000021 0.000000 0
-0.000032 0.000000 0
-0.000043 0.000000 0
-0.000054 0.000000 0
-0.000084 0.000000 0
-0.000135 0.000000 0
-0.000174 0.000000 0
-0.000204 0.000000 0
-0.000237 0.000000 0
-0.000281 0.000000 0
-0.000336 0.000000 0
-0.000400 0.000000 0
-0.000475 0.000000 0
-0.000562 0.000000 0
-0.000665 0.000000 0
-0.000786 0.000000 0
-0.000925 0.000000 0
-0.001078 0.000000 0
-0.001236 0.000000 0
-0.001391 0.000000 0
-0.001548 0.000000 0
-0.001664 0.000000 0
-0.001620 0.000000 0
-0.001348 0.000000 0
-0.000820 0.000000 0
-0.000002 0.000000 0
0.001136 0.000000 0
0.002281 0.000000 0
0.003345 0.000000 0
0.004329 0.000000 0
0.005140 0.000000 0
0.005750 0.000000 0
0.005952 0.000000 0
0.005427 0.000000 0
0.006733 0.000000 0
0.010315 0.000000 0
0.005489 0.000000 0
0.010414 0.000000 0
0.012182 0.000000 0
-0.013358 0.000000 0
-0.016536 0.000000 0
-0.017133 0.000000 0
-0.018288 0.000000 0
-0.022009 0.000000 0
-0.025146 0.000000 0
-0.022320 0.000000 0
-0.016612 0.000000 0
-0.008901 0.000000 0
0.000313 0.000000 0
0.009898 0.000000 0
0.016608 0.000000 0
0.018202 0.000000 0
0.017876 0.000000 0
0.029353 0.000000 0
0.032960 0.000000 0
0.011415 0.000000 0
-0.000428 0.000000 0
-0.001614 0.000000 0
0.003295 0.000000 0
0.007729 0.000000 0
0.005628 0.000000 0
0.001581 0.000000 0
-0.000437 0.000000 0
-0.000651 0.000000 0
-0.000388 0.000000 0
-0.000391 0.000000 0
-0.001074 0.000000 0
-0.002444 0.000000 0
-0.004373 0.000000 0
-0.006576 0.000000 0
-0.008577 0.000000 0
-0.010606 0.000000 0
-0.012106 0.000000 0
-0.013055 0.000000 0
-0.012944 0.000000 0
-0.011697 0.000000 0
-0.014819 0.000000 0
-0.016905 0.000000 0
-0.018067 0.000000 0
-0.018330 0.000000 0
-0.016908 0.000000 0
-0.014494 0.000000 0
-0.011092 0.000000 0
-0.007007 0.000000 0
-0.002289 0.000000 0
0.002892 0.000000 0
0.008190 0.000000 0
0.013118 0.000000 0
0.017144 0.000000 0
0.022986 0.000000 0
0.032156 0.000000 0
0.039668 0.000000 0
0.024365 0.000000 0
0.002529 0.000000 0
-0.001585 0.000000 0
-0.002257 0.000000 0
1.000000 0.000368 0
0.999844 0.000917 0
0.999635 0.001105 0
0.999467 0.001071 0
0.999417 0.000995 0
0.999556 0.000761 0
0.999997 0.000375 0
1.000843 -0.000062 0
1.002238 -0.000715 0
1.004402 -0.001973 0
1.007633 -0.003413 0
1.012118 -0.004791 0
1.018194 -0.006620 0
1.026314 -0.009005 0
1.037067 -0.012089 0
1.051182 -0.015991 0
1.069530 -0.020800 0
1.093093 -0.026522 0
1.122867 -0.032988 0
1.159632 -0.039723 0
1.203588 -0.045804 0
1.253683 -0.049898 0
1.307292 -0.050460 0
1.358911 -0.047125 0
1.404521 -0.041383 0
1.443281 -0.035015 0
1.474897 -0.028663 0
1.500505 -0.022375 0
1.520599 -0.015803 0
1.534480 -0.007961 0
1.540252 0.002297 0
1.535135 0.015527 0
1.515796 0.029986 0
1.480621 0.043872 0
1.432100 0.056531 0
1.372028 0.067026 0
1.303253 0.074424 0
1.229206 0.075787 0
1.152562 0.071212 0
1.075611 0.086292 0
1.007156 0.107714 0
0.947426 0.086469 0
0.816183 0.093372 0
0.577618 0.090806 0
0.491460 -0.025899 0
0.603551 -0.113493 0
0.639466 -0.119099 0
0.711021 -0.127816 0
0.877693 -0.149847 0
1.086680 -0.170026 0
1.268765 -0.161084 0
1.415160 -0.123254 0
1.527795 -0.071292 0
1.594358 -0.007747 0
1.608008 0.059930 0
1.561994 0.113689 0
1.465392 0.136925 0
1.335813 0.157547 0
1.175125 0.250242 0
0.986557 0.280162 0
0.826064 0.140708 0
0.706598 0.007243 0
0.703738 -0.020327 0
0.648592 0.017428 0
0.523754 0.051637 0
0.431586 0.041920 0
0.403775 0.009087 0
0.410460 -0.009445 0
0.421184 -0.011274 0
0.425498 -0.007029 0
0.423668 -0.002990 0
0.420357 -0.003890 0
0.423409 -0.010674 0
0.436903 -0.023117 0
0.464440 -0.038037 0
0.506889 -0.053236 0
0.561833 -0.067206 0
0.629367 -0.076802 0
0.709429 -0.084920 0
0.801085 -0.086920 0
0.902803 -0.084007 0
1.003504 -0.094147 0
1.104195 -0.111554 0
1.217912 -0.121285 0
1.335748 -0.122821 0
1.451729 -0.115192 0
1.557682 -0.098876 0
1.644429 -0.076339 0
1.707960 -0.049390 0
1.745373 -0.018571 0
1.753744 0.015422 0
1.729927 0.050796 0
1.672668 0.083868 0
1.587169 0.113268 0
1.472845 0.151574 0
1.328308 0.205324 0
1.170558 0.230613 0
1.043038 0.156728 0
0.976306 0.035073 0
0.956540 -0.010041 0
0.950811 -0.003838 0
1.000000 0.000140 0
1.000362 0.000341 0
1.000957 0.000362 0
1.001682 0.000202 0
1.002570 -0.000105 0
1.003723 -0.000596 0
1.005103 -0.001303 0
1.006872 -0.002255 0
1.009169 -0.003573 0
1.012113 -0.005408 0
1.015588 -0.007728 0
1.020243 -0.010570 0
1.026361 -0.014204 0
1.034349 -0.018880 0
1.044730 -0.024873 0
1.058193 -0.032467 0
1.075638 -0.041915 0
1.098180 -0.053339 0
1.127149 -0.066540 0
1.163887 -0.080721 0
1.209516 -0.094051 0
1.263577 -0.103704 0
1.324830 -0.105228 0
1.382185 -0.097229 0
1.430004 -0.084370 0
1.468235 -0.070376 0
1.497990 -0.057224 0
1.522386 -0.045702 0
1.543136 -0.033974 0
1.559882 -0.019653 0
1.570276 -0.000656 0
1.571212 0.024456 0
1.558180 0.054515 0
1.526323 0.083697 0
1.479151 0.108594 0
1.420465 0.128848 0
1.353042 0.142823 0
1.277322 0.150693 0
1.193219 0.153597 0
1.098768 0.145407 0
1.002762 0.128185 0
1.042869 0.190973 0
1.102184 0.369808 0
1.085065 0.324722 0
0.875666 -0.025935 0
0.488116 -0.148009 0
0.262783 -0.107473 0
0.226397 -0.238231 0
0.373418 -0.375664 0
0.644174 -0.391077 0
0.913738 -0.328487 0
1.114467 -0.259037 0
1.235214 -0.179205 0
1.321706 -0.080221 0
1.388601 0.032355 0
1.420292 0.142608 0
1.407584 0.226173 0
1.341121 0.290258 0
1.247989 0.349247 0
1.207486 0.349052 0
1.139648 0.279950 0
1.018141 0.122318 0
0.848999 0.057997 0
0.640025 0.179975 0
0.468171 0.216998 0
0.399226 0.119971 0
0.401086 0.021119 0
0.418115 -0.017415 0
0.422089 -0.015044 0
0.410369 -0.002490 0
0.391095 0.005136 0
0.375081 0.000254 0
0.368015 -0.016550 0
0.376315 -0.041034 0
0.399376 -0.069988 0
0.432772 -0.097394 0
0.471777 -0.122478 0
0.517009 -0.147596 0
0.572436 -0.171718 0
0.645152 -0.193372 0
0.744991 -0.202417 0
0.867447 -0.201390 0
0.991965 -0.214405 0
1.102283 -0.231550 0
1.207544 -0.233813 0
1.310816 -0.221930 0
1.402748 -0.192696 0
1.481157 -0.150274 0
1.542238 -0.100940 0
1.582517 -0.045779 0
1.599976 0.015452 0
1.593838 0.081081 0
1.564399 0.142762 0
1.512207 0.199829 0
1.438909 0.258866 0
1.363650 0.302292 0
1.316055 0.285275 0
1.295112 0.194257 0
1.253236 0.086504 0
1.203462 0.025500 0
1.186840 0.009364 0
1.000000 -0.000006 0
1.000232 -0.000056 0
1.000667 -0.000222 0
1.001255 -0.000548 0
1.002005 -0.001052 0
1.002955 -0.001778 0
1.004129 -0.002780 0
1.005605 -0.004134 0
1.007473 -0.005960 0
1.009842 -0.008396 0
1.012816 -0.011547 0
1.016699 -0.015567 0
1.021760 -0.020727 0
1.028344 -0.027375 0
1.036921 -0.035934 0
1.048133 -0.046899 0
1.062926 -0.060786 0
1.082573 -0.078032 0
1.108938 -0.098694 0
1.144262 -0.122089 0
1.191560 -0.145493 0
1.251241 -0.165211 0
1.331477 -0.169067 0
1.400159 -0.152298 0
1.449947 -0.127431 0
1.483470 -0.103001 0
1.508006 -0.082813 0
1.528072 -0.067520 0
1.547421 -0.053297 0
1.566751 -0.035098 0
1.583126 -0.009031 0
1.593068 0.027625 0
1.588919 0.074877 0
1.560115 0.122903 0
1.507362 0.162391 0
1.442832 0.193137 0
1.374861 0.217569 0
1.305448 0.235612 0
1.232605 0.249769 0
1.149747 0.276751 0
1.037698 0.163614 0
0.924270 -0.012953 0
0.948189 0.051177 0
0.981538 0.317325 0
0.726245 0.571050 0
0.320370 0.499389 0
0.150340 0.142619 0
0.099295 -0.238452 0
0.105659 -0.567624 0
0.243349 -0.710348 0
0.519445 -0.631379 0
0.772282 -0.444732 0
0.948895 -0.278533 0
1.057842 -0.161136 0
1.122123 -0.038659 0
1.171410 0.094703 0
1.218324 0.216093 0
1.237536 0.317139 0
1.234566 0.383874 0
1.228265 0.388499 0
1.192592 0.330051 0
1.125060 0.297889 0
0.920917 0.357786 0
0.739876 0.398254 0
0.660772 0.292433 0
0.634743 0.109003 0
0.623183 -0.009804 0
0.604108 -0.030450 0
0.562258 -0.003529 0
0.511487 0.023963 0
0.462133 0.032296 0
0.417117 0.019189 0
0.392149 -0.011909 0
0.400475 -0.054478 0
0.434323 -0.094494 0
0.476695 -0.125637 0
0.515885 -0.151444 0
0.544740 -0.177460 0
0.562481 -0.213063 0
0.578890 -0.259475 0
0.611140 -0.306301 0
0.682324 -0.341120 0
0.796533 -0.346390 0
0.921488 -0.336864 0
1.039003 -0.331354 0
1.132201 -0.310395 0
1.207401 -0.269216 0
1.274947 -0.215828 0
1.329803 -0.150749 0
1.368339 -0.076308 0
1.389082 0.004102 0
1.395147 0.086374 0
1.389299 0.165499 0
1.369027 0.238758 0
1.340614 0.300131 0
1.320165 0.328178 0
1.314681 0.299152 0
1.305891 0.219548 0
1.276133 0.126723 0
1.236443 0.056355 0
1.217102 0.027082 0
1.000000 -0.000105 0
1.000155 -0.000341 0
1.000469 -0.000667 0
1.000913 -0.001143 0
1.001492 -0.001811 0
1.002221 -0.002726 0
1.003120 -0.003957 0
1.004224 -0.005604 0
1.005575 -0.007814 0
1.007294 -0.010754 0
1.009505 -0.014588 0
1.012393 -0.019516 0
1.016111 -0.025851 0
1.020895 -0.034041 0
1.027113 -0.044661 0
1.035240 -0.058472 0
1.046238 -0.076355 0
1.061310 -0.099351 0
1.082972 -0.128227 0
1.114452 -0.163341 0
1.161434 -0.201029 0
1.225725 -0.243620 0
1.356279 -0.254144 0
1.440591 -0.215697 0
1.481460 -0.167681 0
1.501574 -0.128434 0
1.514758 -0.101825 0
1.524872 -0.085115 0
1.537911 -0.072651 0
1.557571 -0.055356 0
1.579556 -0.026971 0
1.605726 0.018666 0
1.626326 0.087471 0
1.609634 0.165257 0
1.553054 0.225880 0
1.471366 0.261352 0
1.380362 0.280210 0
1.293401 0.292952 0
1.215873 0.309300 0
1.146083 0.340317 0
1.102851 0.353664 0
0.923360 0.280483 0
0.566844 0.312541 0
0.295746 0.546667 0
0.265857 0.635234 0
0.478679 0.427896 0
0.642994 0.113601 0
0.716842 -0.193551 0
0.630896 -0.519719 0
0.413375 -0.804864 0
0.400313 -0.857421 0
0.527253 -0.688489 0
0.698499 -0.464767 0
0.842128 -0.253450 0
0.934461 -0.081216 0
1.000315 0.046404 0
1.049245 0.160045 0
1.089557 0.274013 0
1.135977 0.358515 0
1.170769 0.391023 0
1.170211 0.383153 0
1.120103 0.393990 0
1.060396 0.443178 0
1.033967 0.440118 0
1.024526 0.322129 0
1.005209 0.157559 0
0.991311 0.051753 0
0.871165 0.043508 0
0.719200 0.077575 0
0.615161 0.097634 0
0.513742 0.099505 0
0.419159 0.070238 0
0.379999 0.000091 0
0.401122 -0.083208 0
0.460465 -0.146208 0
0.529636 -0.178957 0
0.598809 -0.190524 0
0.660299 -0.194192 0
0.704478 -0.205868 0
0.715403 -0.242031 0
0.693032 -0.305850 0
0.663271 -0.386783 0
0.663611 -0.453569 0
0.724990 -0.474019 0
0.821344 -0.444527 0
0.917618 -0.390328 0
1.002108 -0.335442 0
1.067768 -0.272676 0
1.113531 -0.194332 0
1.144285 -0.105058 0
1.163510 -0.011357 0
1.172808 0.080863 0
1.174237 0.168882 0
1.169876 0.248514 0
1.167238 0.307727 0
1.178321 0.328225 0
1.197770 0.299549 0
1.209290 0.232804 0
1.202604 0.155952 0
1.181099 0.084531 0
1.165935 0.047293 0
1.000000 -0.000173 0
1.000095 -0.000540 0
1.000309 -0.000987 0
1.000611 -0.001577 0
1.001006 -0.002365 0
1.001502 -0.003412 0
1.002102 -0.004787 0
1.002803 -0.006593 0
1.003533 -0.009034 0
1.004494 -0.012329 0
1.005778 -0.016649 0
1.007541 -0.022175 0
1.009702 -0.029229 0
1.012339 -0.038376 0
1.015719 -0.050279 0
1.019895 -0.066024 0
1.025766 -0.086855 0
1.034063 -0.114765 0
1.047411 -0.151834 0
1.070652 -0.200549 0
1.109020 -0.256764 0
1.175193 -0.360054 0
1.416607 -0.383932 0
1.486593 -0.277477 0
1.479565 -0.188413 0
1.463054 -0.136297 0
1.451104 -0.106109 0
1.439715 -0.090670 0
1.433582 -0.085993 0
1.444663 -0.076741 0
1.453490 -0.057183 0
1.490963 -0.019142 0
1.578482 0.070973 0
1.603831 0.196178 0
1.576919 0.300662 0
1.518506 0.365832 0
1.434824 0.395538 0
1.333411 0.400105 0
1.225844 0.397090 0
1.134067 0.389776 0
1.088988 0.386340 0
1.003575 0.523056 0
0.714172 0.678792 0
0.594626 0.618314 0
0.743189 0.388118 0
0.968025 0.122253 0
1.123049 -0.095544 0
1.201073 -0.226354 0
1.192419 -0.264158 0
0.985451 -0.479766 0
0.666555 -0.745258 0
0.525048 -0.742919 0
0.541967 -0.593410 0
0.643401 -0.397100 0
0.764631 -0.196848 0
0.868298 -0.020083 0
0.937295 0.126849 0
0.991621 0.230405 0
1.039263 0.302659 0
1.081016 0.354264 0
1.109513 0.380715 0
1.106292 0.407701 0
1.099855 0.443920 0
1.151221 0.434122 0
1.257751 0.321189 0
1.275087 0.142217 0
1.049134 0.124238 0
0.793839 0.241659 0
0.663480 0.252473 0
0.583885 0.229420 0
0.449797 0.228298 0
0.367091 0.152932 0
0.373200 0.006127 0
0.433585 -0.134944 0
0.513050 -0.223008 0
0.579104 -0.263982 0
0.631860 -0.282107 0
0.683838 -0.283130 0
0.745737 -0.268167 0
0.809145 -0.248029 0
0.841065 -0.254169 0
0.817900 -0.311700 0
0.750289 -0.408110 0
0.688789 -0.494597 0
0.672529 -0.523982 0
0.707700 -0.491160 0
0.767486 -0.419366 0
0.825018 -0.327252 0
0.871787 -0.227267 0
0.906068 -0.126288 0
0.930185 -0.024422 0
0.946054 0.075646 0
0.956787 0.168430 0
0.969493 0.245756 0
0.993357 0.291685 0
1.029100 0.297645 0
1.064848 0.268181 0
1.090075 0.214712 0
1.106621 0.154914 0
1.107459 0.093023 0
1.100544 0.057963 0
1.000000 -0.000212 0
1.000035 -0.000665 0
1.000176 -0.001189 0
1.000336 -0.001845 0
1.000546 -0.002708 0
1.000810 -0.003827 0
1.001122 -0.005263 0
1.001506 -0.007039 0
1.001448 -0.009508 0
1.001588 -0.013001 0
1.001806 -0.017637 0
1.002520 -0.023442 0
1.003063 -0.030649 0
1.003723 -0.040057 0
1.003116 -0.052217 0
1.005603 -0.068518 0
1.001538 -0.090520 0
1.007018 -0.120994 0
0.999579 -0.164814 0
1.017033 -0.224948 0
1.025335 -0.305566 0
1.103127 -0.551205 0
1.420023 -0.565542 0
1.340942 -0.278654 0
1.229961 -0.144140 0
1.158539 -0.099970 0
1.081923 -0.078483 0
1.072204 -0.067590 0
0.967882 -0.077595 0
0.986825 -0.075260 0
0.975905 -0.073267 0
0.888845 -0.106322 0
1.231502 -0.025392 0
1.349063 0.166825 0
1.386185 0.311209 0
1.392967 0.403451 0
1.383740 0.465310 0
1.350095 0.501936 0
1.284051 0.508647 0
1.208446 0.477176 0
1.125489 0.484159 0
0.995892 0.655302 0
0.946309 0.721493 0
0.971494 0.517652 0
1.024637 0.261836 0
1.117814 0.048038 0
1.078608 -0.119446 0
0.916675 -0.262920 0
0.839609 -0.304096 0
0.852293 -0.279001 0
0.709449 -0.397018 0
0.564681 -0.563902 0
0.513938 -0.583121 0
0.546762 -0.476115 0
0.636703 -0.306114 0
0.741613 -0.126262 0
0.836408 0.036720 0
0.909855 0.172043 0
0.958649 0.269118 0
1.003172 0.320771 0
1.040958 0.357875 0
1.062387 0.403647 0
1.110727 0.398247 0
1.224418 0.282220 0
1.271756 0.198261 0
1.140131 0.366174 0
0.928203 0.532999 0
0.848296 0.429162 0
0.803429 0.287528 0
0.644055 0.311315 0
0.506511 0.316298 0
0.484971 0.146835 0
0.536030 -0.066403 0
0.625252 -0.223059 0
0.733598 -0.291727 0
0.813811 -0.297768 0
0.838043 -0.295258 0
0.809369 -0.308070 0
0.771918 -0.331176 0
0.784509 -0.337359 0
0.838083 -0.314606 0
0.879814 -0.296007 0
0.868615 -0.324458 0
0.799336 -0.396260 0
0.709053 -0.463439 0
0.642660 -0.485286 0
0.617566 -0.452760 0
0.626017 -0.376978 0
0.653464 -0.275383 0
0.685129 -0.163458 0
0.714299 -0.051345 0
0.741389 0.054259 0
0.769716 0.145442 0
0.805525 0.211942 0
0.852479 0.248118 0
0.902646 0.256731 0
0.949396 0.238572 0
0.984125 0.191030 0
1.008275 0.138565 0
1.014373 0.090606 0
1.011956 0.062147 0
1.000000 -0.000220 0
0.999969 -0.000731 0
1.000058 -0.001294 0
1.000101 -0.001953 0
1.000149 -0.002845 0
1.000195 -0.003993 0
1.000190 -0.005488 0
1.000347 -0.006922 0
0.999759 -0.009118 0
0.999896 -0.012689 0
0.998656 -0.017582 0
0.997997 -0.023432 0
0.996913 -0.030432 0
0.996549 -0.038429 0
0.992890 -0.052157 0
0.991153 -0.064443 0
0.981915 -0.088268 0
0.981977 -0.112804 0
0.957488 -0.161847 0
0.960345 -0.226301 0
0.905343 -0.342855 0
1.007991 -0.754740 0
0.690886 -0.534331 0
-0.001767 0.000000 0
-0.000723 0.000000 0
0.449885 0.017751 0
0.399436 -0.019771 0
0.414511 0.023375 0
0.299289 -0.000610 0
0.332888 -0.084759 0
0.107118 0.040802 0
0.104864 -0.274733 0
0.377735 -0.389240 0
0.643229 0.041500 0
0.819844 0.256764 0
1.026956 0.368283 0
1.151643 0.438414 0
1.195952 0.499798 0
1.207573 0.538743 0
1.187880 0.548343 0
1.110072 0.598898 0
1.025195 0.702240 0
1.070713 0.703194 0
1.088920 0.539989 0
1.069521 0.241800 0
0.871511 0.068283 0
0.594501 0.105596 0
0.404138 0.012646 0
0.312670 -0.199775 0
0.362310 -0.349606 0
0.475288 -0.457646 0
0.508485 -0.547408 0
0.510752 -0.575491 0
0.528148 -0.519865 0
0.581404 -0.391700 0
0.666871 -0.219789 0
0.761783 -0.041394 0
0.844541 0.108161 0
0.918611 0.209341 0
0.984743 0.271954 0
1.037280 0.321498 0
1.105870 0.337930 0
1.205077 0.281887 0
1.164346 0.273091 0
0.938996 0.405475 0
0.776200 0.485769 0
0.859626 0.416071 0
0.936748 0.366431 0
0.834182 0.456712 0
0.664782 0.526337 0
0.642152 0.387381 0
0.711674 0.123412 0
0.776065 -0.134155 0
0.816994 -0.332513 0
0.878863 -0.411567 0
0.948809 -0.368427 0
0.987586 -0.277666 0
0.979412 -0.217005 0
0.938540 -0.243307 0
0.881983 -0.314194 0
0.853158 -0.349475 0
0.870602 -0.342233 0
0.900140 -0.327633 0
0.889270 -0.335036 0
0.823811 -0.367308 0
0.732831 -0.399674 0
0.650802 -0.402725 0
0.595509 -0.363153 0
0.569533 -0.286381 0
0.567017 -0.187125 0
0.581221 -0.080684 0
0.608060 0.020226 0
0.647035 0.104292 0
0.696926 0.162990 0
0.753134 0.194561 0
0.809997 0.200726 0
0.863034 0.186699 0
0.902387 0.155830 0
0.920849 0.124663 0
0.921088 0.089340 0
0.919516 0.063878 0
1.000000 -0.000194 0
0.999985 -0.000738 0
0.999967 -0.001326 0
0.999900 -0.001942 0
0.999908 -0.002806 0
0.999778 -0.003873 0
0.999840 -0.005419 0
0.999068 -0.006612 0
0.999292 -0.009060 0
0.997768 -0.011899 0
0.997978 -0.015738 0
0.994768 -0.021699 0
0.994167 -0.029200 0
0.988788 -0.036033 0
0.988445 -0.046820 0
0.974642 -0.057541 0
0.976683 -0.081341 0
0.944443 -0.096564 0
0.945991 -0.143178 0
0.878852 -0.172799 0
0.839629 -0.353209 0
0.691204 -0.424157 0
0.000000 0.005075 0
-0.589783 0.150640 0
-0.500370 0.000000 0
0.000000 0.000000 0
0.011501 -0.049356 0
-0.026271 0.032560 0
-0.132260 0.004033 0
-0.150500 0.116916 0
-0.423194 0.154762 0
-0.491766 -0.376933 0
-0.604003 -0.563752 0
-0.178493 -0.275278 0
0.035443 -0.072512 0
0.526654 0.071658 0
0.809921 0.296320 0
0.976819 0.446011 0
1.058337 0.516724 0
1.070887 0.574682 0
1.050242 0.646849 0
1.063639 0.694665 0
1.138474 0.657771 0
1.218921 0.518847 0
1.105483 0.479248 0
0.671348 0.523061 0
0.441387 0.347929 0
0.431194 0.018912 0
0.425832 -0.262267 0
0.425596 -0.441618 0
0.451130 -0.543193 0
0.481081 -0.599366 0
0.510576 -0.602784 0
0.548053 -0.546769 0
0.594358 -0.444839 0
0.658248 -0.306642 0
0.747869 -0.140951 0
0.857763 0.015214 0
0.954738 0.128914 0
1.021227 0.202101 0
1.080142 0.236747 0
1.133923 0.235849 0
1.091257 0.339770 0
0.902157 0.548299 0
0.743352 0.586406 0
0.734537 0.445543 0
0.748914 0.372451 0
0.701340 0.454606 0
0.648744 0.559493 0
0.716564 0.503344 0
0.837925 0.269406 0
0.929645 0.012921 0
0.971821 -0.171725 0
0.958168 -0.325857 0
0.901523 -0.423542 0
0.837281 -0.406491 0
0.793016 -0.325863 0
0.802638 -0.259025 0
0.840710 -0.233748 0
0.856894 -0.251979 0
0.857780 -0.303226 0
0.873166 -0.342991 0
0.907606 -0.343128 0
0.939652 -0.319933 0
0.938051 -0.307003 0
0.889989 -0.312279 0
0.810421 -0.315440 0
0.726666 -0.295711 0
0.659799 -0.246895 0
0.618887 -0.175150 0
0.604640 -0.092391 0
0.614183 -0.011559 0
0.643082 0.056572 0
0.684404 0.105840 0
0.730051 0.135043 0
0.772707 0.146828 0
0.805979 0.146178 0
0.827230 0.133211 0
0.833177 0.119861 0
0.832895 0.091935 0
0.832171 0.066139 0
1.000000 -0.000216 0
1.000022 -0.000713 0
0.999873 -0.001215 0
0.999868 -0.001898 0
0.999836 -0.002727 0
0.999701 -0.003929 0
0.999263 -0.004782 0
0.998707 -0.006376 0
0.998396 -0.007820 0
0.997226 -0.011377 0
0.995776 -0.014583 0
0.994838 -0.019621 0
0.990754 -0.024451 0
0.986125 -0.032706 0
0.980370 -0.038010 0
0.971728 -0.052678 0
0.961859 -0.058065 0
0.934558 -0.082108 0
0.919084 -0.096252 0
0.840005 -0.119934 0
0.816228 -0.155202 0
0.480244 -0.000030 0
0.370641 0.071951 0
0.000000 0.000000 0
0.000000 0.000000 0
0.000000 0.000000 0
0.000000 0.000000 0
-0.049608 0.166888 0
0.021032 0.123624 0
-0.486636 0.206181 0
-0.560480 0.382074 0
-0.794332 -0.093917 0
-0.755360 -0.702506 0
-0.809728 -0.597939 0
-0.400512 -0.448376 0
0.059791 -0.406189 0
0.455726 -0.011745 0
0.730226 0.251388 0
0.900954 0.444681 0
0.981313 0.556443 0
1.051151 0.606151 0
1.154369 0.614012 0
1.253592 0.547916 0
1.193949 0.572984 0
0.866378 0.789377 0
0.708495 0.732382 0
0.802041 0.345752 0
0.868330 0.028203 0
0.798713 -0.194176 0
0.666247 -0.374903 0
0.569201 -0.513130 0
0.525627 -0.606854 0
0.529229 -0.642463 0
0.571670 -0.603648 0
0.631700 -0.501896 0
0.693230 -0.373301 0
0.761969 -0.240910 0
0.845796 -0.098709 0
0.922743 0.045876 0