# vtk DataFile Version 2.0
generated by CFD-lab course output (written by Tobias Neckel) 
ASCII

DATASET STRUCTURED_GRID
DIMENSIONS  101 21 1 
POINTS 2121 float

0.000000 0.000000 0
0.100000 0.000000 0
0.200000 0.000000 0
0.300000 0.000000 0
0.400000 0.000000 0
0.500000 0.000000 0
0.600000 0.000000 0
0.700000 0.000000 0
0.800000 0.000000 0
0.900000 0.000000 0
1.000000 0.000000 0
1.100000 0.000000 0
1.200000 0.000000 0
1.300000 0.000000 0
1.400000 0.000000 0
1.500000 0.000000 0
1.600000 0.000000 0
1.700000 0.000000 0
1.800000 0.000000 0
1.900000 0.000000 0
2.000000 0.000000 0
2.100000 0.000000 0
2.200000 0.000000 0
2.300000 0.000000 0
2.400000 0.000000 0
2.500000 0.000000 0
2.600000 0.000000 0
2.700000 0.000000 0
2.800000 0.000000 0
2.900000 0.000000 0
3.000000 0.000000 0
3.100000 0.000000 0
3.200000 0.000000 0
3.300000 0.000000 0
3.400000 0.000000 0
3.500000 0.000000 0
3.600000 0.000000 0
3.700000 0.000000 0
3.800000 0.000000 0
3.900000 0.000000 0
4.000000 0.000000 0
4.100000 0.000000 0
4.200000 0.000000 0
4.300000 0.000000 0
4.400000 0.000000 0
4.500000 0.000000 0
4.600000 0.000000 0
4.700000 0.000000 0
4.800000 0.000000 0
4.900000 0.000000 0
5.000000 0.000000 0
5.100000 0.000000 0
5.200000 0.000000 0
5.300000 0.000000 0
5.400000 0.000000 0
5.500000 0.000000 0
5.600000 0.000000 0
5.700000 0.000000 0
5.800000 0.000000 0
5.900000 0.000000 0
6.000000 0.000000 0
6.100000 0.000000 0
6.200000 0.000000 0
6.300000 0.000000 0
6.400000 0.000000 0
6.500000 0.000000 0
6.600000 0.000000 0
6.700000 0.000000 0
6.800000 0.000000 0
6.900000 0.000000 0
7.000000 0.000000 0
7.100000 0.000000 0
7.200000 0.000000 0
7.300000 0.000000 0
7.400000 0.000000 0
7.500000 0.000000 0
7.600000 0.000000 0
7.700000 0.000000 0
7.800000 0.000000 0
7.900000 0.000000 0
8.000000 0.000000 0
8.100000 0.000000 0
8.200000 0.000000 0
8.300000 0.000000 0
8.400000 0.000000 0
8.500000 0.000000 0
8.600000 0.000000 0
8.700000 0.000000 0
8.800000 0.000000 0
8.900000 0.000000 0
9.000000 0.000000 0
9.100000 0.000000 0
9.200000 0.000000 0
9.300000 0.000000 0
9.400000 0.000000 0
9.500000 0.000000 0
9.600000 0.000000 0
9.700000 0.000000 0
9.800000 0.000000 0
9.900000 0.000000 0
10.000000 0.000000 0
0.000000 0.100000 0
0.100000 0.100000 0
0.200000 0.100000 0
0.300000 0.100000 0
0.400000 0.100000 0
0.500000 0.100000 0
0.600000 0.100000 0
0.700000 0.100000 0
0.800000 0.100000 0
0.900000 0.100000 0
1.000000 0.100000 0
1.100000 0.100000 0
1.200000 0.100000 0
1.300000 0.100000 0
1.400000 0.100000 0
1.500000 0.100000 0
1.600000 0.100000 0
1.700000 0.100000 0
1.800000 0.100000 0
1.900000 0.100000 0
2.000000 0.100000 0
2.100000 0.100000 0
2.200000 0.100000 0
2.300000 0.100000 0
2.400000 0.100000 0
2.500000 0.100000 0
2.600000 0.100000 0
2.700000 0.100000 0
2.800000 0.100000 0
2.900000 0.100000 0
3.000000 0.100000 0
3.100000 0.100000 0
3.200000 0.100000 0
3.300000 0.100000 0
3.400000 0.100000 0
3.500000 0.100000 0
3.600000 0.100000 0
3.700000 0.100000 0
3.800000 0.100000 0
3.900000 0.100000 0
4.000000 0.100000 0
4.100000 0.100000 0
4.200000 0.100000 0
4.300000 0.100000 0
4.400000 0.100000 0
4.500000 0.100000 0
4.600000 0.100000 0
4.700000 0.100000 0
4.800000 0.100000 0
4.900000 0.100000 0
5.000000 0.100000 0
5.100000 0.100000 0
5.200000 0.100000 0
5.300000 0.100000 0
5.400000 0.100000 0
5.500000 0.100000 0
5.600000 0.100000 0
5.700000 0.100000 0
5.800000 0.100000 0
5.900000 0.100000 0
6.000000 0.100000 0
6.100000 0.100000 0
6.200000 0.100000 0
6.300000 0.100000 0
6.400000 0.100000 0
6.500000 0.100000 0
6.600000 0.100000 0
6.700000 0.100000 0
6.800000 0.100000 0
6.900000 0.100000 0
7.000000 0.100000 0
7.100000 0.100000 0
7.200000 0.100000 0
7.300000 0.100000 0
7.400000 0.100000 0
7.500000 0.100000 0
7.600000 0.100000 0
7.700000 0.100000 0
7.800000 0.100000 0
7.900000 0.100000 0
8.000000 0.100000 0
8.100000 0.100000 0
8.200000 0.100000 0
8.300000 0.100000 0
8.400000 0.100000 0
8.500000 0.100000 0
8.600000 0.100000 0
8.700000 0.100000 0
8.800000 0.100000 0
8.900000 0.100000 0
9.000000 0.100000 0
9.100000 0.100000 0
9.200000 0.100000 0
9.300000 0.100000 0
9.400000 0.100000 0
9.500000 0.100000 0
9.600000 0.100000 0
9.700000 0.100000 0
9.800000 0.100000 0
9.900000 0.100000 0
10.000000 0.100000 0
0.000000 0.200000 0
0.100000 0.200000 0
0.200000 0.200000 0
0.300000 0.200000 0
0.400000 0.200000 0
0.500000 0.200000 0
0.600000 0.200000 0
0.700000 0.200000 0
0.800000 0.200000 0
0.900000 0.200000 0
1.000000 0.200000 0
1.100000 0.200000 0
1.200000 0.200000 0
1.300000 0.200000 0
1.400000 0.200000 0
1.500000 0.200000 0
1.600000 0.200000 0
1.700000 0.200000 0
1.800000 0.200000 0
1.900000 0.200000 0
2.000000 0.200000 0
2.100000 0.200000 0
2.200000 0.200000 0
2.300000 0.200000 0
2.400000 0.200000 0
2.500000 0.200000 0
2.600000 0.200000 0
2.700000 0.200000 0
2.800000 0.200000 0
2.900000 0.200000 0
3.000000 0.200000 0
3.100000 0.200000 0
3.200000 0.200000 0
3.300000 0.200000 0
3.400000 0.200000 0
3.500000 0.200000 0
3.600000 0.200000 0
3.700000 0.200000 0
3.800000 0.200000 0
3.900000 0.200000 0
4.000000 0.200000 0
4.100000 0.200000 0
4.200000 0.200000 0
4.300000 0.200000 0
4.400000 0.200000 0
4.500000 0.200000 0
4.600000 0.200000 0
4.700000 0.200000 0
4.800000 0.200000 0
4.900000 0.200000 0
5.000000 0.200000 0
5.100000 0.200000 0
5.200000 0.200000 0
5.300000 0.200000 0
5.400000 0.200000 0
5.500000 0.200000 0
5.600000 0.200000 0
5.700000 0.200000 0
5.800000 0.200000 0
5.900000 0.200000 0
6.000000 0.200000 0
6.100000 0.200000 0
6.200000 0.200000 0
6.300000 0.200000 0
6.400000 0.200000 0
6.500000 0.200000 0
6.600000 0.200000 0
6.700000 0.200000 0
6.800000 0.200000 0
6.900000 0.200000 0
7.000000 0.200000 0
7.100000 0.200000 0
7.200000 0.200000 0
7.300000 0.200000 0
7.400000 0.200000 0
7.500000 0.200000 0
7.600000 0.200000 0
7.700000 0.200000 0
7.800000 0.200000 0
7.900000 0.200000 0
8.000000 0.200000 0
8.100000 0.200000 0
8.200000 0.200000 0
8.300000 0.200000 0
8.400000 0.200000 0
8.500000 0.200000 0
8.600000 0.200000 0
8.700000 0.200000 0
8.800000 0.200000 0
8.900000 0.200000 0
9.000000 0.200000 0
9.100000 0.200000 0
9.200000 0.200000 0
9.300000 0.200000 0
9.400000 0.200000 0
9.500000 0.200000 0
9.600000 0.200000 0
9.700000 0.200000 0
9.800000 0.200000 0
9.900000 0.200000 0
10.000000 0.200000 0
0.000000 0.300000 0
0.100000 0.300000 0
0.200000 0.300000 0
0.300000 0.300000 0
0.400000 0.300000 0
0.500000 0.300000 0
0.600000 0.300000 0
0.700000 0.300000 0
0.800000 0.300000 0
0.900000 0.300000 0
1.000000 0.300000 0
1.100000 0.300000 0
1.200000 0.300000 0
1.300000 0.300000 0
1.400000 0.300000 0
1.500000 0.300000 0
1.600000 0.300000 0
1.700000 0.300000 0
1.800000 0.300000 0
1.900000 0.300000 0
2.000000 0.300000 0
2.100000 0.300000 0
2.200000 0.300000 0
2.300000 0.300000 0
2.400000 0.300000 0
2.500000 0.300000 0
2.600000 0.300000 0
2.700000 0.300000 0
2.800000 0.300000 0
2.900000 0.300000 0
3.000000 0.300000 0
3.100000 0.300000 0
3.200000 0.300000 0
3.300000 0.300000 0
3.400000 0.300000 0
3.500000 0.300000 0
3.600000 0.300000 0
3.700000 0.300000 0
3.800000 0.300000 0
3.900000 0.300000 0
4.000000 0.300000 0
4.100000 0.300000 0
4.200000 0.300000 0
4.300000 0.300000 0
4.400000 0.300000 0
4.500000 0.300000 0
4.600000 0.300000 0
4.700000 0.300000 0
4.800000 0.300000 0
4.900000 0.300000 0
5.000000 0.300000 0
5.100000 0.300000 0
5.200000 0.300000 0
5.300000 0.300000 0
5.400000 0.300000 0
5.500000 0.300000 0
5.600000 0.300000 0
5.700000 0.300000 0
5.800000 0.300000 0
5.900000 0.300000 0
6.000000 0.300000 0
6.100000 0.300000 0
6.200000 0.300000 0
6.300000 0.300000 0
6.400000 0.300000 0
6.500000 0.300000 0
6.600000 0.300000 0
6.700000 0.300000 0
6.800000 0.300000 0
6.900000 0.300000 0
7.000000 0.300000 0
7.100000 0.300000 0
7.200000 0.300000 0
7.300000 0.300000 0
7.400000 0.300000 0
7.500000 0.300000 0
7.600000 0.300000 0
7.700000 0.300000 0
7.800000 0.300000 0
7.900000 0.300000 0
8.000000 0.300000 0
8.100000 0.300000 0
8.200000 0.300000 0
8.300000 0.300000 0
8.400000 0.300000 0
8.500000 0.300000 0
8.600000 0.300000 0
8.700000 0.300000 0
8.800000 0.300000 0
8.900000 0.300000 0
9.000000 0.300000 0
9.100000 0.300000 0
9.200000 0.300000 0
9.300000 0.300000 0
9.400000 0.300000 0
9.500000 0.300000 0
9.600000 0.300000 0
9.700000 0.300000 0
9.800000 0.300000 0
9.900000 0.300000 0
10.000000 0.300000 0
0.000000 0.400000 0
0.100000 0.400000 0
0.200000 0.400000 0
0.300000 0.400000 0
0.400000 0.400000 0
0.500000 0.400000 0
0.600000 0.400000 0
0.700000 0.400000 0
0.800000 0.400000 0
0.900000 0.400000 0
1.000000 0.400000 0
1.100000 0.400000 0
1.200000 0.400000 0
1.300000 0.400000 0
1.400000 0.400000 0
1.500000 0.400000 0
1.600000 0.400000 0
1.700000 0.400000 0
1.800000 0.400000 0
1.900000 0.400000 0
2.000000 0.400000 0
2.100000 0.400000 0
2.200000 0.400000 0
2.300000 0.400000 0
2.400000 0.400000 0
2.500000 0.400000 0
2.600000 0.400000 0
2.700000 0.400000 0
2.800000 0.400000 0
2.900000 0.400000 0
3.000000 0.400000 0
3.100000 0.400000 0
3.200000 0.400000 0
3.300000 0.400000 0
3.400000 0.400000 0
3.500000 0.400000 0
3.600000 0.400000 0
3.700000 0.400000 0
3.800000 0.400000 0
3.900000 0.400000 0
4.000000 0.400000 0
4.100000 0.400000 0
4.200000 0.400000 0
4.300000 0.400000 0
4.400000 0.400000 0
4.500000 0.400000 0
4.600000 0.400000 0
4.700000 0.400000 0
4.800000 0.400000 0
4.900000 0.400000 0
5.000000 0.400000 0
5.100000 0.400000 0
5.200000 0.400000 0
5.300000 0.400000 0
5.400000 0.400000 0
5.500000 0.400000 0
5.600000 0.400000 0
5.700000 0.400000 0
5.800000 0.400000 0
5.900000 0.400000 0
6.000000 0.400000 0
6.100000 0.400000 0
6.200000 0.400000 0
6.300000 0.400000 0
6.400000 0.400000 0
6.500000 0.400000 0
6.600000 0.400000 0
6.700000 0.400000 0
6.800000 0.400000 0
6.900000 0.400000 0
7.000000 0.400000 0
7.100000 0.400000 0
7.200000 0.400000 0
7.300000 0.400000 0
7.400000 0.400000 0
7.500000 0.400000 0
7.600000 0.400000 0
7.700000 0.400000 0
7.800000 0.400000 0
7.900000 0.400000 0
8.000000 0.400000 0
8.100000 0.400000 0
8.200000 0.400000 0
8.300000 0.400000 0
8.400000 0.400000 0
8.500000 0.400000 0
8.600000 0.400000 0
[...]
POINT_DATA 2121 

VECTORS velocity float
0.500000 0.000000 0
0.000004 0.000000 0
0.000013 0.000000 0
0.000030 0.000000 0
0.000059 0.000000 0
0.000099 0.000000 0
0.000158 0.000000 0
0.000203 0.000000 0
0.000270 0.000000 0
0.000346 0.000000 0
0.000432 0.000000 0
0.000533 0.000000 0
0.000645 0.000000 0
0.000765 0.000000 0
0.000890 0.000000 0
0.001021 0.000000 0
0.001165 0.000000 0
0.001332 0.000000 0
0.001523 0.000000 0
0.001728 0.000000 0
0.001930 0.000000 0
0.002100 0.000000 0
0.002210 0.000000 0
0.002241 0.000000 0
0.002174 0.000000 0
0.001948 0.000000 0
0.001532 0.000000 0
0.000939 0.000000 0
0.000151 0.000000 0
-0.000922 0.000000 0
-0.002458 0.000000 0
-0.004724 0.000000 0
-0.007932 0.000000 0
-0.011767 0.000000 0
-0.016392 0.000000 0
-0.021100 0.000000 0
-0.024398 0.000000 0
-0.022380 0.000000 0
-0.014661 0.000000 0
-0.004929 0.000000 0
0.003288 0.000000 0
0.009337 0.000000 0
0.014341 0.000000 0
0.016274 0.000000 0
0.016497 0.000000 0
0.015838 0.000000 0
0.014784 0.000000 0
0.013148 0.000000 0
0.010778 0.000000 0
0.007793 0.000000 0
0.005543 0.000000 0
0.006561 0.000000 0
0.005421 0.000000 0
0.002099 0.000000 0
-0.000345 0.000000 0
-0.001049 0.000000 0
0.000750 0.000000 0
0.000851 0.000000 0
0.000003 0.000000 0
-0.000895 0.000000 0
-0.001376 0.000000 0
-0.001121 0.000000 0
-0.000895 0.000000 0
-0.000790 0.000000 0
-0.000732 0.000000 0
-0.000679 0.000000 0
-0.000628 0.000000 0
-0.000586 0.000000 0
-0.000552 0.000000 0
-0.000525 0.000000 0
-0.000508 0.000000 0
-0.000498 0.000000 0
-0.000486 0.000000 0
-0.000467 0.000000 0
-0.000453 0.000000 0
-0.000450 0.000000 0
-0.000444 0.000000 0
-0.000422 0.000000 0
-0.000394 0.000000 0
-0.000379 0.000000 0
-0.000383 0.000000 0
-0.000387 0.000000 0
-0.000366 0.000000 0
-0.000318 0.000000 0
-0.000275 0.000000 0
-0.000270 0.000000 0
-0.000304 0.000000 0
-0.000341 0.000000 0
-0.000328 0.000000 0
-0.000305 0.000000 0
-0.000284 0.000000 0
-0.000267 0.000000 0
-0.000254 0.000000 0
-0.000244 0.000000 0
-0.000236 0.000000 0
-0.000230 0.000000 0
-0.000226 0.000000 0
-0.000223 0.000000 0
-0.000221 0.000000 0
-0.000221 0.000000 0
-0.000221 0.000000 0
1.000000 0.000264 0
1.000161 0.000508 0
1.000562 0.000368 0
1.001254 0.000089 0
1.002274 -0.000256 0
1.003658 -0.000680 0
1.005460 -0.001155 0
1.007744 -0.001690 0
1.010612 -0.002362 0
1.014214 -0.003222 0
1.018761 -0.004331 0
1.024532 -0.005768 0
1.031905 -0.007661 0
1.041378 -0.010161 0
1.053580 -0.013411 0
1.069274 -0.017502 0
1.089318 -0.022426 0
1.114602 -0.028036 0
1.145888 -0.033951 0
1.183513 -0.039402 0
1.226890 -0.043061 0
1.273665 -0.043087 0
1.319242 -0.037461 0
1.355510 -0.025728 0
1.376046 -0.009869 0
1.378268 0.007359 0
1.362592 0.023789 0
1.330956 0.038058 0
1.285914 0.049055 0
1.230956 0.055330 0
1.171078 0.054811 0
1.113534 0.044706 0
1.068823 0.021659 0
1.053793 -0.015775 0
1.084687 -0.065982 0
1.174857 -0.124164 0
1.326889 -0.176890 0
1.533032 -0.198439 0
1.748024 -0.171267 0
1.908221 -0.107090 0
1.981512 -0.035837 0
1.988691 0.025102 0
1.938416 0.073426 0
1.843348 0.105128 0
1.728049 0.120494 0
1.607236 0.125275 0
1.490703 0.123457 0
1.383104 0.115474 0
1.287896 0.099878 0
1.206870 0.078703 0
1.138330 0.064818 0
1.078961 0.063219 0
1.028461 0.055930 0
0.984536 0.031927 0
0.953224 0.007064 0
0.924682 0.001029 0
0.893084 0.007383 0
0.872599 0.008416 0
0.865494 0.002044 0
0.869322 -0.005356 0
0.880984 -0.008982 0
0.891475 -0.008421 0
0.898420 -0.006813 0
0.904168 -0.005840 0
0.909721 -0.005280 0
0.914900 -0.004767 0
0.919546 -0.004268 0
0.923674 -0.003838 0
0.927376 -0.003474 0
0.930784 -0.003170 0
0.934016 -0.002957 0
0.937090 -0.002821 0
0.939969 -0.002665 0
0.942685 -0.002454 0
0.945326 -0.002288 0
0.947888 -0.002226 0
0.950259 -0.002153 0
0.952372 -0.001952 0
0.954306 -0.001682 0
0.956200 -0.001521 0
0.958083 -0.001536 0
0.959815 -0.001580 0
0.961190 -0.001407 0
0.962211 -0.000984 0
0.963085 -0.000580 0
0.964056 -0.000489 0
0.965218 -0.000759 0
0.966387 -0.001074 0
0.967381 -0.001101 0
0.968222 -0.000922 0
0.968926 -0.000737 0
0.969509 -0.000580 0
0.969990 -0.000455 0
0.970386 -0.000354 0
0.970711 -0.000278 0
0.970979 -0.000218 0
0.971204 -0.000186 0
0.971401 -0.000163 0
0.971584 -0.000229 0
0.971790 -0.000378 0
0.972022 -0.000439 0
1.000000 -0.000163 0
1.000735 -0.000564 0
1.001923 -0.001094 0
1.003471 -0.001713 0
1.005358 -0.002404 0
1.007592 -0.003187 0
1.010182 -0.004085 0
1.013224 -0.005151 0
1.016803 -0.006471 0
1.021050 -0.008149 0
1.026146 -0.010318 0
1.032352 -0.013145 0
1.040015 -0.016846 0
1.049577 -0.021676 0
1.061609 -0.027897 0
1.076844 -0.035740 0
1.096205 -0.045330 0
1.120818 -0.056571 0
1.151942 -0.068912 0
1.190721 -0.081003 0
1.237777 -0.090153 0
1.291565 -0.092353 0
1.348811 -0.081845 0
1.394726 -0.056804 0
1.419890 -0.022757 0
1.422661 0.013455 0
1.405410 0.047314 0
1.371290 0.076681 0
1.322354 0.100002 0
1.261142 0.114838 0
1.191412 0.117425 0
1.118361 0.102259 0
1.047803 0.059745 0
1.006785 -0.015859 0
1.017825 -0.121059 0
1.092328 -0.242198 0
1.222436 -0.358170 0
1.423446 -0.421129 0
1.684471 -0.375182 0
1.886105 -0.233481 0
2.000340 -0.080463 0
2.025507 0.043104 0
1.978808 0.145351 0
1.886716 0.210376 0
1.773904 0.236120 0
1.653052 0.237355 0
1.529639 0.224142 0
1.411126 0.202817 0
1.308410 0.176245 0
1.223936 0.149577 0
1.151667 0.127920 0
1.092397 0.109880 0
1.049444 0.094436 0
1.026750 0.075248 0
1.022397 0.059865 0
1.010076 0.060151 0
0.999066 0.052095 0
0.993955 0.027601 0
0.985423 0.003288 0
0.969636 -0.015478 0
0.948711 -0.022142 0
0.934322 -0.017426 0
0.930127 -0.012683 0
0.932490 -0.011291 0
0.938112 -0.010721 0
0.943755 -0.009815 0
0.948570 -0.008765 0
0.952699 -0.007821 0
0.956437 -0.007102 0
0.959994 -0.006632 0
0.963428 -0.006298 0
0.966712 -0.005945 0
0.969870 -0.005588 0
0.972981 -0.005350 0
0.976032 -0.005197 0
0.978878 -0.004927 0
0.981446 -0.004478 0
0.983823 -0.004041 0
0.986152 -0.003822 0
0.988446 -0.003772 0
0.990518 -0.003610 0
0.992170 -0.003102 0
0.993446 -0.002391 0
0.994633 -0.001891 0
0.996014 -0.001841 0
0.997604 -0.002128 0
0.999123 -0.002328 0
1.000224 -0.002159 0
1.001009 -0.001831 0
1.001680 -0.001541 0
1.002276 -0.001284 0
1.002803 -0.001061 0
1.003265 -0.000873 0
1.003666 -0.000717 0
1.004013 -0.000591 0
1.004307 -0.000490 0
1.004564 -0.000419 0
1.004772 -0.000377 0
1.004965 -0.000385 0
1.005053 -0.000435 0
1.005070 -0.000461 0
1.000000 -0.000473 0
1.000551 -0.001417 0
1.001548 -0.002369 0
1.002914 -0.003347 0
1.004608 -0.004378 0
1.006619 -0.005505 0
1.008959 -0.006788 0
1.011677 -0.008312 0
1.014841 -0.010189 0
1.018550 -0.012566 0
1.022949 -0.015635 0
1.028243 -0.019639 0
1.034716 -0.024888 0
1.042758 -0.031757 0
1.052905 -0.040681 0
1.065933 -0.052100 0
1.082867 -0.066402 0
1.105150 -0.083776 0
1.134724 -0.103856 0
1.173977 -0.125239 0
1.225945 -0.143906 0
1.290509 -0.154122 0
1.374235 -0.140622 0
1.438383 -0.096808 0
1.469406 -0.037805 0
1.469622 0.021840 0
1.446465 0.075161 0
1.406351 0.121114 0
1.349846 0.159203 0
1.277890 0.186273 0
1.189498 0.197593 0
1.082089 0.188315 0
0.986729 0.133235 0
0.897338 0.014203 0
0.863473 -0.151524 0
0.868882 -0.328774 0
0.909349 -0.508006 0
1.050750 -0.660472 0
1.351627 -0.633925 0
1.627092 -0.422957 0
1.817164 -0.175237 0
1.909500 0.046637 0
1.919692 0.212219 0
1.861822 0.310034 0
1.758997 0.354162 0
1.646485 0.369543 0
1.541044 0.365386 0
1.441433 0.336707 0
1.339810 0.287072 0
1.237114 0.235449 0
1.144900 0.196361 0
1.075745 0.165447 0
1.032314 0.121581 0
1.006325 0.058978 0
0.973300 0.023742 0
0.957488 0.024363 0
0.966438 0.023509 0
0.974153 0.022063 0
0.971112 0.026367 0
0.958062 0.031360 0
0.938852 0.026335 0
0.925946 0.010167 0
0.923368 -0.004976 0
0.927933 -0.013821 0
0.937056 -0.016541 0
0.943579 -0.015222 0
0.947948 -0.013210 0
0.951530 -0.011702 0
0.955007 -0.010765 0
0.958543 -0.010158 0
0.962095 -0.009673 0
0.965628 -0.009260 0
0.969153 -0.008931 0
0.972613 -0.008613 0
0.975866 -0.008183 0
0.978840 -0.007638 0
0.981613 -0.007096 0
0.984313 -0.006655 0
0.986919 -0.006303 0
0.989231 -0.005885 0
0.991091 -0.005259 0
0.992582 -0.004506 0
0.994025 -0.003867 0
0.995667 -0.003550 0
0.997428 -0.003550 0
0.999029 -0.003597 0
1.000151 -0.003377 0
1.000979 -0.002958 0
1.001722 -0.002556 0
1.002381 -0.002188 0
1.002964 -0.001858 0
1.003477 -0.001568 0
1.003926 -0.001316 0
1.004314 -0.001100 0
1.004647 -0.000918 0
1.004928 -0.000768 0
1.005164 -0.000649 0
1.005354 -0.000563 0
1.005498 -0.000510 0
1.005575 -0.000482 0
1.005582 -0.000469 0
1.000000 -0.000715 0
1.000427 -0.002115 0
1.001258 -0.003459 0
1.002426 -0.004774 0
1.003883 -0.006110 0
1.005609 -0.007539 0
1.007606 -0.009145 0
1.009897 -0.011035 0
1.012517 -0.013346 0
1.015525 -0.016259 0
1.019015 -0.020012 0
1.023121 -0.024914 0
1.028046 -0.031364 0
1.034086 -0.039867 0
1.041661 -0.051075 0
1.051585 -0.065704 0
1.064803 -0.084549 0
1.083013 -0.108432 0
1.108848 -0.137742 0
1.146260 -0.172226 0
1.201554 -0.206688 0
1.278633 -0.240644 0
1.422207 -0.229720 0
1.510873 -0.151975 0
1.544964 -0.053997 0
1.543090 0.036396 0
1.514339 0.110585 0
1.464370 0.173299 0
1.394460 0.228463 0
1.302500 0.275186 0
1.210339 0.313226 0
1.140590 0.305027 0
0.907407 0.244496 0
0.703547 0.107397 0
0.646716 -0.092602 0
0.504302 -0.288074 0
0.430123 -0.540037 0
0.498146 -0.863406 0
0.718808 -0.951522 0
1.119188 -0.699016 0
1.365955 -0.362869 0
1.539885 -0.059422 0
1.666002 0.193032 0
1.712527 0.371073 0
1.674330 0.451460 0
1.581183 0.455311 0
1.473346 0.429196 0
1.375969 0.404054 0
1.295957 0.380568 0
1.232529 0.344491 0
1.183152 0.289292 0
1.143465 0.222470 0
1.104304 0.163860 0
1.049482 0.134266 0
0.978471 0.108706 0
0.937092 0.067018 0
0.936165 0.035434 0
0.946638 0.022931 0
0.958036 0.019383 0
0.970546 0.016785 0
0.983667 0.009978 0
0.989055 -0.001937 0
0.984588 -0.014666 0
0.973708 -0.024976 0
0.959614 -0.026364 0
0.951540 -0.020704 0
0.949078 -0.016714 0
0.950029 -0.014877 0
0.952805 -0.014112 0
0.956443 -0.013718 0
0.960417 -0.013380 0
0.964500 -0.012999 0
0.968554 -0.012570 0
0.972416 -0.012060 0
0.975961 -0.011421 0
0.979208 -0.010673 0
0.982270 -0.009949 0
0.985205 -0.009344 0
0.987882 -0.008738 0
0.990083 -0.007943 0
0.991816 -0.006959 0
0.993382 -0.006034 0
0.995096 -0.005474 0
0.996959 -0.005292 0
0.998674 -0.005202 0
0.999949 -0.004850 0
1.000860 -0.004276 0
1.001638 -0.003729 0
1.002316 -0.003231 0
1.002909 -0.002781 0
1.003427 -0.002379 0
1.003877 -0.002022 0
1.004267 -0.001708 0
1.004603 -0.001437 0
1.004888 -0.001204 0
1.005126 -0.001007 0
1.005322 -0.000843 0
1.005474 -0.000710 0
1.005583 -0.000605 0
1.005639 -0.000517 0
1.005641 -0.000472 0
1.000000 -0.000901 0
1.000294 -0.002677 0
1.000984 -0.004370 0
1.001956 -0.005974 0
1.003155 -0.007563 0
1.004556 -0.009230 0
1.006154 -0.011078 0
1.007952 -0.013225 0
1.009949 -0.015820 0
1.012150 -0.019067 0
1.014590 -0.023234 0
1.017311 -0.028673 0
1.020407 -0.035856 0
1.024055 -0.045376 0
1.028296 -0.058183 0
1.034238 -0.075245 0
1.042072 -0.097833 0
1.053718 -0.127824 0
1.071842 -0.167107 0
1.102979 -0.217948 0
1.150330 -0.276283 0
1.242695 -0.374777 0
1.506204 -0.372864 0
1.592388 -0.219566 0
1.606481 -0.070023 0
1.601362 0.052464 0
1.577389 0.153879 0
1.537004 0.240992 0
1.476805 0.321073 0
1.399494 0.370393 0
1.254862 0.359501 0
1.012438 0.491246 0
0.854607 0.570277 0
0.893968 0.274893 0
0.575422 0.047720 0
0.270634 -0.112181 0
0.260864 -0.501849 0
0.336594 -0.949156 0
0.369337 -1.254966 0
0.613833 -1.070103 0
0.932320 -0.595932 0
1.132733 -0.253409 0
1.263134 0.039578 0
1.385177 0.301707 0
1.452973 0.485509 0
1.445035 0.570530 0
1.378198 0.570602 0
1.296360 0.514099 0
1.236025 0.430516 0
1.192760 0.348258 0
1.156882 0.285428 0
1.121313 0.244298 0
1.081982 0.215567 0
1.046262 0.184815 0
1.029158 0.136135 0
1.010318 0.066673 0
0.985953 0.013967 0
0.970918 0.000196 0
0.965869 0.002463 0
0.966747 0.005733 0
0.969666 0.007830 0
0.969900 0.009249 0
0.965316 0.010374 0
0.956538 0.011157 0
0.945158 0.005631 0
0.939755 -0.004683 0
0.939783 -0.011695 0
0.942968 -0.015426 0
0.947612 -0.017176 0
0.952753 -0.017767 0
0.957991 -0.017726 0
0.963157 -0.017394 0
0.968041 -0.016845 0
0.972431 -0.016018 0
0.976344 -0.014973 0
0.980010 -0.013944 0
0.983542 -0.013090 0
0.986707 -0.012266 0
0.989198 -0.011179 0
0.991110 -0.009817 0
0.992892 -0.008556 0
0.994841 -0.007784 0
0.996971 -0.007443 0
0.998778 -0.007126 0
1.000110 -0.006539 0
1.001029 -0.005782 0
1.001803 -0.005064 0
1.002472 -0.004413 0
1.003051 -0.003825 0
1.003552 -0.003297 0
1.003984 -0.002825 0
1.004357 -0.002407 0
1.004678 -0.002040 0
1.004951 -0.001719 0
1.005181 -0.001441 0
1.005371 -0.001201 0
1.005523 -0.000996 0
1.005638 -0.000822 0
1.005716 -0.000673 0
1.005753 -0.000539 0
1.005746 -0.000468 0
1.000000 -0.001012 0
1.000047 -0.003102 0
1.000688 -0.005123 0
1.001491 -0.006947 0
1.002419 -0.008712 0
1.003472 -0.010541 0
1.004640 -0.012544 0
1.005922 -0.014832 0
1.007270 -0.017547 0
1.008625 -0.020904 0
1.009990 -0.025177 0
1.011288 -0.030735 0
1.012471 -0.038111 0
1.013879 -0.047759 0
1.014014 -0.061263 0
1.016340 -0.079485 0
1.016822 -0.104034 0
1.021150 -0.138206 0
1.023396 -0.187006 0
1.046675 -0.250718 0
1.057303 -0.346408 0
1.167556 -0.596522 0
1.539035 -0.579414 0
1.481362 -0.252253 0
1.412870 -0.062973 0
1.411036 0.065487 0
1.410039 0.174942 0
1.442084 0.273881 0
1.405004 0.365971 0
1.352883 0.497127 0
1.333154 0.700281 0
1.212427 0.705281 0
1.096579 0.362964 0
0.870287 0.386581 0
0.523899 0.530730 0
0.388790 0.026483 0
0.432915 -0.605998 0
0.487347 -0.971879 0
0.451950 -1.228761 0
0.410441 -1.261999 0
0.646986 -0.881769 0
0.858433 -0.390235 0
0.988121 -0.059411 0
1.083873 0.181236 0
1.149479 0.391604 0
1.182826 0.530089 0
1.193639 0.577874 0
1.180267 0.546230 0
1.135078 0.484171 0
1.091207 0.423636 0
1.061782 0.360742 0
1.036001 0.297373 0
1.010295 0.238914 0
0.991746 0.187094 0
0.980706 0.144654 0
0.962694 0.110226 0
0.925309 0.074837 0
0.889512 0.043019 0
0.865843 0.023558 0
0.853548 0.012991 0
0.850326 0.006828 0
0.854372 0.002417 0
0.864194 -0.001300 0
0.878525 -0.004815 0
0.896181 -0.009577 0
0.910528 -0.015326 0
0.921998 -0.019924 0
0.931758 -0.022702 0
0.940487 -0.023893 0
0.948520 -0.024094 0
0.955880 -0.023781 0
0.962374 -0.023047 0
0.967956 -0.021842 0
0.972960 -0.020361 0
0.977700 -0.018997 0
0.982048 -0.017868 0
0.985647 -0.016644 0
0.988399 -0.014998 0
0.990601 -0.013139 0
0.992848 -0.011635 0
0.995281 -0.010688 0
0.997573 -0.010111 0
0.999401 -0.009410 0
1.000678 -0.008429 0
1.001565 -0.007450 0
1.002297 -0.006541 0
1.002920 -0.005718 0
1.003451 -0.004976 0
1.003904 -0.004310 0
1.004291 -0.003713 0
1.004621 -0.003183 0
1.004904 -0.002713 0
1.005144 -0.002300 0
1.005347 -0.001939 0
1.005516 -0.001623 0
1.005654 -0.001348 0
1.005762 -0.001109 0
1.005840 -0.000901 0
1.005889 -0.000718 0
1.005906 -0.000547 0
1.005891 -0.000457 0
1.000000 -0.000952 0
1.000010 -0.003370 0
1.000226 -0.005817 0
1.000951 -0.007709 0
1.001658 -0.009547 0
1.002367 -0.011453 0
1.003086 -0.013531 0
1.003887 -0.015859 0
1.004636 -0.018527 0
1.005132 -0.021791 0
1.005529 -0.025900 0
1.005578 -0.031160 0
1.004558 -0.038452 0
1.005947 -0.046923 0
1.000049 -0.060650 0
1.005208 -0.078059 0
0.989678 -0.102648 0
0.997752 -0.134404 0
0.969786 -0.192637 0
0.985101 -0.251860 0
0.936119 -0.397169 0
1.043409 -0.856514 0
0.759321 -0.593271 0
0.003247 0.000000 0
0.002598 0.000000 0
0.602847 0.054990 0
0.667238 0.122830 0
0.840078 0.246025 0
1.073754 0.410273 0
1.069810 0.442241 0
1.063408 0.499954 0
1.105771 0.727819 0
0.837244 0.912416 0
0.194274 0.847571 0
0.218668 0.529216 0
0.370285 -0.021197 0
0.426222 -0.600407 0
0.473599 -0.968193 0
0.513544 -1.178061 0
0.435118 -1.265139 0
0.476765 -1.043924 0
0.632651 -0.594542 0
0.773999 -0.185861 0
0.835014 0.140349 0
0.880503 0.386558 0
0.942480 0.526372 0
0.988168 0.573163 0
0.976581 0.572662 0
0.950836 0.519578 0
0.946665 0.421557 0
0.940164 0.340637 0
0.920416 0.295788 0
0.900425 0.259826 0
0.887417 0.214407 0
0.876959 0.165191 0
0.865447 0.122072 0
0.851268 0.087152 0
0.832498 0.059666 0
0.816831 0.038431 0
0.809344 0.021253 0
0.811044 0.007008 0
0.820476 -0.004616 0
0.835461 -0.013775 0
0.853869 -0.020827 0
0.873775 -0.026369 0
0.892501 -0.030496 0
0.909143 -0.032923 0
0.923555 -0.033912 0
0.935872 -0.033935 0
0.946372 -0.033157 0
0.955313 -0.031577 0
0.962997 -0.029467 0
0.969708 -0.027429 0
0.975615 -0.025760 0
0.980648 -0.024058 0
0.984693 -0.021889 0
0.987966 -0.019439 0
0.991023 -0.017217 0
0.993889 -0.015626 0
0.996645 -0.014495 0
0.998939 -0.013279 0
1.000637 -0.011902 0
1.001724 -0.010547 0
1.002540 -0.009288 0
1.003192 -0.008156 0
1.003727 -0.007135 0
1.004169 -0.006217 0
1.004535 -0.005396 0
1.004839 -0.004663 0
1.005095 -0.004013 0
1.005311 -0.003437 0
1.005493 -0.002929 0
1.005647 -0.002482 0
1.005775 -0.002090 0
1.005881 -0.001746 0
1.005965 -0.001446 0
1.006028 -0.001181 0
1.006070 -0.000947 0
1.006091 -0.000738 0
1.006090 -0.000540 0
1.006066 -0.000436 0
1.000000 -0.001026 0
1.000107 -0.003334 0
0.999917 -0.006068 0
1.000320 -0.008382 0
1.000885 -0.010132 0
1.001295 -0.011973 0
1.001483 -0.014067 0
1.001911 -0.016386 0
1.002353 -0.018796 0
1.001782 -0.021801 0
1.002042 -0.025628 0
0.999809 -0.029769 0
1.000452 -0.038487 0
0.994960 -0.043256 0
0.995578 -0.060529 0
0.983675 -0.069120 0
0.983265 -0.096584 0
0.959795 -0.118321 0
0.948315 -0.174362 0
0.896446 -0.217058 0
0.853202 -0.404723 0
0.706223 -0.513132 0
0.000000 -0.001659 0
-0.662876 0.200472 0
-0.597871 0.000000 0
0.000000 0.000000 0
0.056575 -0.060706 0
0.121337 -0.132637 0
0.294868 0.136236 0
0.697004 0.507471 0
0.450443 0.664316 0
0.350481 0.931442 0
0.268908 1.274459 0
0.035381 1.005154 0
0.077165 0.354717 0
0.285906 -0.181072 0
0.411589 -0.709313 0
0.461861 -1.059202 0
0.514302 -1.190281 0
0.482405 -1.225220 0
0.431678 -1.079302 0
0.512113 -0.687470 0
0.624530 -0.261774 0
0.739970 0.074733 0
0.835561 0.284139 0
0.887847 0.422425 0
0.890545 0.543775 0
0.880417 0.583564 0
0.889781 0.514088 0
0.876677 0.434311 0
0.839866 0.386994 0
0.817548 0.337114 0
0.819168 0.271916 0
0.822408 0.210563 0
0.810538 0.166627 0
0.787128 0.135921 0
0.763757 0.107789 0
0.748420 0.077459 0
0.744825 0.046715 0
0.752376 0.018782 0
0.768394 -0.004300 0
0.789799 -0.021996 0
0.813944 -0.034689 0
0.838920 -0.043126 0
0.863151 -0.048207 0
0.885427 -0.050690 0
0.905432 -0.050974 0
0.922789 -0.049429 0
0.937409 -0.046708 0
0.949424 -0.043532 0
0.959272 -0.040403 0
0.967383 -0.037439 0
0.974172 -0.034458 0
0.980057 -0.031299 0
0.985173 -0.028073 0
0.989406 -0.025184 0
0.993050 -0.022971 0
0.996485 -0.020918 0
0.999235 -0.018759 0
1.001209 -0.016684 0
1.002504 -0.014678 0
1.003413 -0.012894 0
1.004078 -0.011311 0
1.004586 -0.009896 0
1.004971 -0.008636 0
1.005265 -0.007517 0
1.005491 -0.006524 0
1.005668 -0.005645 0
1.005809 -0.004868 0
1.005924 -0.004183 0
1.006019 -0.003579 0
1.006098 -0.003048 0
1.006163 -0.002581 0
1.006217 -0.002171 0
1.006259 -0.001811 0
1.006291 -0.001494 0
1.006310 -0.001213 0
1.006318 -0.000962 0
1.006312 -0.000736 0
1.006293 -0.000520 0
1.006259 -0.000406 0
1.000000 -0.001064 0
0.999944 -0.003294 0
0.999888 -0.006032 0
0.999925 -0.008681 0
0.999997 -0.010527 0
1.000373 -0.012055 0
0.999997 -0.014151 0
1.000451 -0.016733 0
0.999737 -0.018403 0
0.999610 -0.021485 0
0.998123 -0.023933 0
0.996758 -0.029575 0
0.994519 -0.033609 0
0.988283 -0.042055 0
0.988303 -0.049371 0
0.970268 -0.065752 0
0.971136 -0.078775 0
0.932910 -0.099460 0
0.930973 -0.129295 0
0.835255 -0.156755 0
0.813133 -0.206953 0
0.478512 -0.089509 0
0.337624 0.026758 0
0.000000 0.000000 0
0.000000 0.000000 0
0.000000 0.000000 0
0.000000 0.000000 0
-0.063783 0.004652 0
-0.118236 -0.165398 0
0.081563 0.286662 0
0.251854 0.846474 0
0.158273 0.909351 0
0.181083 1.227512 0
0.243832 1.039311 0
0.362522 0.278688 0
0.533227 -0.355624 0
0.581745 -0.776364 0
0.558937 -1.070908 0
0.528675 -1.198606 0
0.521774 -1.182516 0
0.442289 -1.073633 0
0.447902 -0.787395 0
0.502937 -0.413718 0
0.573608 -0.070681 0
0.619307 0.238681 0
0.627928 0.471389 0
0.654644 0.580594 0
0.725738 0.573428 0
0.767749 0.523320 0
0.765071 0.471474 0
0.769653 0.399768 0
0.789281 0.316489 0
0.792179 0.254968 0
0.765106 0.223040 0
0.724279 0.200473 0