# vtk DataFile Version 2.0
generated by CFD-lab course output (written by Tobias Neckel) 
ASCII

DATASET STRUCTURED_GRID
DIMENSIONS  101 21 1 
POINTS 2121 float

0.000000 0.000000 0
0.100000 0.000000 0
0.200000 0.000000 0
0.300000 0.000000 0
0.400000 0.000000 0
0.500000 0.000000 0
0.600000 0.000000 0
0.700000 0.000000 0
0.800000 0.000000 0
0.900000 0.000000 0
1.000000 0.000000 0
1.100000 0.000000 0
1.200000 0.000000 0
1.300000 0.000000 0
1.400000 0.000000 0
1.500000 0.000000 0
1.600000 0.000000 0
1.700000 0.000000 0
1.800000 0.000000 0
1.900000 0.000000 0
2.000000 0.000000 0
2.100000 0.000000 0
2.200000 0.000000 0
2.300000 0.000000 0
2.400000 0.000000 0
2.500000 0.000000 0
2.600000 0.000000 0
2.700000 0.000000 0
2.800000 0.000000 0
2.900000 0.000000 0
3.000000 0.000000 0
3.100000 0.000000 0
3.200000 0.000000 0
3.300000 0.000000 0
3.400000 0.000000 0
3.500000 0.000000 0
3.600000 0.000000 0
3.700000 0.000000 0
3.800000 0.000000 0
3.900000 0.000000 0
4.000000 0.000000 0
4.100000 0.000000 0
4.200000 0.000000 0
4.300000 0.000000 0
4.400000 0.000000 0
4.500000 0.000000 0
4.600000 0.000000 0
4.700000 0.000000 0
4.800000 0.000000 0
4.900000 0.000000 0
5.000000 0.000000 0
5.100000 0.000000 0
5.200000 0.000000 0
5.300000 0.000000 0
5.400000 0.000000 0
5.500000 0.000000 0
5.600000 0.000000 0
5.700000 0.000000 0
5.800000 0.000000 0
5.900000 0.000000 0
6.000000 0.000000 0
6.100000 0.000000 0
6.200000 0.000000 0
6.300000 0.000000 0
6.400000 0.000000 0
6.500000 0.000000 0
6.600000 0.000000 0
6.700000 0.000000 0
6.800000 0.000000 0
6.900000 0.000000 0
7.000000 0.000000 0
7.100000 0.000000 0
7.200000 0.000000 0
7.300000 0.000000 0
7.400000 0.000000 0
7.500000 0.000000 0
7.600000 0.000000 0
7.700000 0.000000 0
7.800000 0.000000 0
7.900000 0.000000 0
8.000000 0.000000 0
8.100000 0.000000 0
8.200000 0.000000 0
8.300000 0.000000 0
8.400000 0.000000 0
8.500000 0.000000 0
8.600000 0.000000 0
8.700000 0.000000 0
8.800000 0.000000 0
8.900000 0.000000 0
9.000000 0.000000 0
9.100000 0.000000 0
9.200000 0.000000 0
9.300000 0.000000 0
9.400000 0.000000 0
9.500000 0.000000 0
9.600000 0.000000 0
9.700000 0.000000 0
9.800000 0.000000 0
9.900000 0.000000 0
10.000000 0.000000 0
0.000000 0.100000 0
0.100000 0.100000 0
0.200000 0.100000 0
0.300000 0.100000 0
0.400000 0.100000 0
0.500000 0.100000 0
0.600000 0.100000 0
0.700000 0.100000 0
0.800000 0.100000 0
0.900000 0.100000 0
1.000000 0.100000 0
1.100000 0.100000 0
1.200000 0.100000 0
1.300000 0.100000 0
1.400000 0.100000 0
1.500000 0.100000 0
1.600000 0.100000 0
1.700000 0.100000 0
1.800000 0.100000 0
1.900000 0.100000 0
2.000000 0.100000 0
2.100000 0.100000 0
2.200000 0.100000 0
2.300000 0.100000 0
2.400000 0.100000 0
2.500000 0.100000 0
2.600000 0.100000 0
2.700000 0.100000 0
2.800000 0.100000 0
2.900000 0.100000 0
3.000000 0.100000 0
3.100000 0.100000 0
3.200000 0.100000 0
3.300000 0.100000 0
3.400000 0.100000 0
3.500000 0.100000 0
3.600000 0.100000 0
3.700000 0.100000 0
3.800000 0.100000 0
3.900000 0.100000 0
4.000000 0.100000 0
4.100000 0.100000 0
4.200000 0.100000 0
4.300000 0.100000 0
4.400000 0.100000 0
4.500000 0.100000 0
4.600000 0.100000 0
4.700000 0.100000 0
4.800000 0.100000 0
4.900000 0.100000 0
5.000000 0.100000 0
5.100000 0.100000 0
5.200000 0.100000 0
5.300000 0.100000 0
5.400000 0.100000 0
5.500000 0.100000 0
5.600000 0.100000 0
5.700000 0.100000 0
5.800000 0.100000 0
5.900000 0.100000 0
6.000000 0.100000 0
6.100000 0.100000 0
6.200000 0.100000 0
6.300000 0.100000 0
6.400000 0.100000 0
6.500000 0.100000 0
6.600000 0.100000 0
6.700000 0.100000 0
6.800000 0.100000 0
6.900000 0.100000 0
7.000000 0.100000 0
7.100000 0.100000 0
7.200000 0.100000 0
7.300000 0.100000 0
7.400000 0.100000 0
7.500000 0.100000 0
7.600000 0.100000 0
7.700000 0.100000 0
7.800000 0.100000 0
7.900000 0.100000 0
8.000000 0.100000 0
8.100000 0.100000 0
8.200000 0.100000 0
8.300000 0.100000 0
8.400000 0.100000 0
8.500000 0.100000 0
8.600000 0.100000 0
8.700000 0.100000 0
8.800000 0.100000 0
8.900000 0.100000 0
9.000000 0.100000 0
9.100000 0.100000 0
9.200000 0.100000 0
9.300000 0.100000 0
9.400000 0.100000 0
9.500000 0.100000 0
9.600000 0.100000 0
9.700000 0.100000 0
9.800000 0.100000 0
9.900000 0.100000 0
10.000000 0.100000 0
0.000000 0.200000 0
0.100000 0.200000 0
0.200000 0.200000 0
0.300000 0.200000 0
0.400000 0.200000 0
0.500000 0.200000 0
0.600000 0.200000 0
0.700000 0.200000 0
0.800000 0.200000 0
0.900000 0.200000 0
1.000000 0.200000 0
1.100000 0.200000 0
1.200000 0.200000 0
1.300000 0.200000 0
1.400000 0.200000 0
1.500000 0.200000 0
1.600000 0.200000 0
1.700000 0.200000 0
1.800000 0.200000 0
1.900000 0.200000 0
2.000000 0.200000 0
2.100000 0.200000 0
2.200000 0.200000 0
2.300000 0.200000 0
2.400000 0.200000 0
2.500000 0.200000 0
2.600000 0.200000 0
2.700000 0.200000 0
2.800000 0.200000 0
2.900000 0.200000 0
3.000000 0.200000 0
3.100000 0.200000 0
3.200000 0.200000 0
3.300000 0.200000 0
3.400000 0.200000 0
3.500000 0.200000 0
3.600000 0.200000 0
3.700000 0.200000 0
3.800000 0.200000 0
3.900000 0.200000 0
4.000000 0.200000 0
4.100000 0.200000 0
4.200000 0.200000 0
4.300000 0.200000 0
4.400000 0.200000 0
4.500000 0.200000 0
4.600000 0.200000 0
4.700000 0.200000 0
4.800000 0.200000 0
4.900000 0.200000 0
5.000000 0.200000 0
5.100000 0.200000 0
5.200000 0.200000 0
5.300000 0.200000 0
5.400000 0.200000 0
5.500000 0.200000 0
5.600000 0.200000 0
5.700000 0.200000 0
5.800000 0.200000 0
5.900000 0.200000 0
6.000000 0.200000 0
6.100000 0.200000 0
6.200000 0.200000 0
6.300000 0.200000 0
6.400000 0.200000 0
6.500000 0.200000 0
6.600000 0.200000 0
6.700000 0.200000 0
6.800000 0.200000 0
6.900000 0.200000 0
7.000000 0.200000 0
7.100000 0.200000 0
7.200000 0.200000 0
7.300000 0.200000 0
7.400000 0.200000 0
7.500000 0.200000 0
7.600000 0.200000 0
7.700000 0.200000 0
7.800000 0.200000 0
7.900000 0.200000 0
8.000000 0.200000 0
8.100000 0.200000 0
8.200000 0.200000 0
8.300000 0.200000 0
8.400000 0.200000 0
8.500000 0.200000 0
8.600000 0.200000 0
8.700000 0.200000 0
8.800000 0.200000 0
8.900000 0.200000 0
9.000000 0.200000 0
9.100000 0.200000 0
9.200000 0.200000 0
9.300000 0.200000 0
9.400000 0.200000 0
9.500000 0.200000 0
9.600000 0.200000 0
9.700000 0.200000 0
9.800000 0.200000 0
9.900000 0.200000 0
10.000000 0.200000 0
0.000000 0.300000 0
0.100000 0.300000 0
0.200000 0.300000 0
0.300000 0.300000 0
0.400000 0.300000 0
0.500000 0.300000 0
0.600000 0.300000 0
0.700000 0.300000 0
0.800000 0.300000 0
0.900000 0.300000 0
1.000000 0.300000 0
1.100000 0.300000 0
1.200000 0.300000 0
1.300000 0.300000 0
1.400000 0.300000 0
1.500000 0.300000 0
1.600000 0.300000 0
1.700000 0.300000 0
1.800000 0.300000 0
1.900000 0.300000 0
2.000000 0.300000 0
2.100000 0.300000 0
2.200000 0.300000 0
2.300000 0.300000 0
2.400000 0.300000 0
2.500000 0.300000 0
2.600000 0.300000 0
2.700000 0.300000 0
2.800000 0.300000 0
2.900000 0.300000 0
3.000000 0.300000 0
3.100000 0.300000 0
3.200000 0.300000 0
3.300000 0.300000 0
3.400000 0.300000 0
3.500000 0.300000 0
3.600000 0.300000 0
3.700000 0.300000 0
3.800000 0.300000 0
3.900000 0.300000 0
4.000000 0.300000 0
4.100000 0.300000 0
4.200000 0.300000 0
4.300000 0.300000 0
4.400000 0.300000 0
4.500000 0.300000 0
4.600000 0.300000 0
4.700000 0.300000 0
4.800000 0.300000 0
4.900000 0.300000 0
5.000000 0.300000 0
5.100000 0.300000 0
5.200000 0.300000 0
5.300000 0.300000 0
5.400000 0.300000 0
5.500000 0.300000 0
5.600000 0.300000 0
5.700000 0.300000 0
5.800000 0.300000 0
5.900000 0.300000 0
6.000000 0.300000 0
6.100000 0.300000 0
6.200000 0.300000 0
6.300000 0.300000 0
6.400000 0.300000 0
6.500000 0.300000 0
6.600000 0.300000 0
6.700000 0.300000 0
6.800000 0.300000 0
6.900000 0.300000 0
7.000000 0.300000 0
7.100000 0.300000 0
7.200000 0.300000 0
7.300000 0.300000 0
7.400000 0.300000 0
7.500000 0.300000 0
7.600000 0.300000 0
7.700000 0.300000 0
7.800000 0.300000 0
7.900000 0.300000 0
8.000000 0.300000 0
8.100000 0.300000 0
8.200000 0.300000 0
8.300000 0.300000 0
8.400000 0.300000 0
8.500000 0.300000 0
8.600000 0.300000 0
8.700000 0.300000 0
8.800000 0.300000 0
8.900000 0.300000 0
9.000000 0.300000 0
9.100000 0.300000 0
9.200000 0.300000 0
9.300000 0.300000 0
9.400000 0.300000 0
9.500000 0.300000 0
9.600000 0.300000 0
9.700000 0.300000 0
9.800000 0.300000 0
9.900000 0.300000 0
10.000000 0.300000 0
0.000000 0.400000 0
0.100000 0.400000 0
0.200000 0.400000 0
0.300000 0.400000 0
0.400000 0.400000 0
0.500000 0.400000 0
0.600000 0.400000 0
0.700000 0.400000 0
0.800000 0.400000 0
0.900000 0.400000 0
1.000000 0.400000 0
1.100000 0.400000 0
1.200000 0.400000 0
1.300000 0.400000 0
1.400000 0.400000 0
1.500000 0.400000 0
1.600000 0.400000 0
1.700000 0.400000 0
1.800000 0.400000 0
1.900000 0.400000 0
2.000000 0.400000 0
2.100000 0.400000 0
2.200000 0.400000 0
2.300000 0.400000 0
2.400000 0.400000 0
2.500000 0.400000 0
2.600000 0.400000 0
2.700000 0.400000 0
2.800000 0.400000 0
2.900000 0.400000 0
3.000000 0.400000 0
3.100000 0.400000 0
3.200000 0.400000 0
3.300000 0.400000 0
3.400000 0.400000 0
3.500000 0.400000 0
3.600000 0.400000 0
3.700000 0.400000 0
3.800000 0.400000 0
3.900000 0.400000 0
4.000000 0.400000 0
4.100000 0.400000 0
4.200000 0.400000 0
4.300000 0.400000 0
4.400000 0.400000 0
4.500000 0.400000 0
4.600000 0.400000 0
4.700000 0.400000 0
4.800000 0.400000 0
4.900000 0.400000 0
5.000000 0.400000 0
5.100000 0.400000 0
5.200000 0.400000 0
5.300000 0.400000 0
5.400000 0.400000 0
5.500000 0.400000 0
5.600000 0.400000 0
5.700000 0.400000 0
5.800000 0.400000 0
5.900000 0.400000 0
6.000000 0.400000 0
6.100000 0.400000 0
6.200000 0.400000 0
6.300000 0.400000 0
6.400000 0.400000 0
6.500000 0.400000 0
6.600000 0.400000 0
6.700000 0.400000 0
6.800000 0.400000 0
6.900000 0.400000 0
7.000000 0.400000 0
7.100000 0.400000 0
7.200000 0.400000 0
7.300000 0.400000 0
7.400000 0.400000 0
7.500000 0.400000 0
7.600000 0.400000 0
7.700000 0.400000 0
7.800000 0.400000 0
7.900000 0.400000 0
8.000000 0.400000 0
8.100000 0.400000 0
8.200000 0.400000 0
8.300000 0.400000 0
8.400000 0.400000 0
8.500000 0.400000 0
8.600000 0.400000 0
[...]
POINT_DATA 2121 

VECTORS velocity float
0.500000 0.000000 0
0.000006 0.000000 0
0.000019 0.000000 0
0.000043 0.000000 0
0.000079 0.000000 0
0.000138 0.000000 0
0.000185 0.000000 0
0.000243 0.000000 0
0.000312 0.000000 0
0.000389 0.000000 0
0.000474 0.000000 0
0.000568 0.000000 0
0.000670 0.000000 0
0.000783 0.000000 0
0.000911 0.000000 0
0.001056 0.000000 0
0.001220 0.000000 0
0.001404 0.000000 0
0.001608 0.000000 0
0.001829 0.000000 0
0.002061 0.000000 0
0.002290 0.000000 0
0.002494 0.000000 0
0.002611 0.000000 0
0.002538 0.000000 0
0.002198 0.000000 0
0.001562 0.000000 0
0.000743 0.000000 0
-0.000266 0.000000 0
-0.001495 0.000000 0
-0.003046 0.000000 0
-0.005064 0.000000 0
-0.007634 0.000000 0
-0.010575 0.000000 0
-0.013209 0.000000 0
-0.013990 0.000000 0
-0.010087 0.000000 0
-0.003939 0.000000 0
0.002331 0.000000 0
0.007177 0.000000 0
0.009781 0.000000 0
0.011254 0.000000 0
0.011882 0.000000 0
0.012482 0.000000 0
0.010031 0.000000 0
-0.000963 0.000000 0
-0.026263 0.000000 0
0.009618 0.000000 0
0.069286 0.000000 0
0.036986 0.000000 0
0.011106 0.000000 0
-0.006818 0.000000 0
-0.016859 0.000000 0
-0.019589 0.000000 0
-0.017497 0.000000 0
-0.015694 0.000000 0
-0.016911 0.000000 0
-0.017615 0.000000 0
-0.017426 0.000000 0
-0.015993 0.000000 0
-0.013958 0.000000 0
-0.010220 0.000000 0
-0.003937 0.000000 0
0.002320 0.000000 0
0.005318 0.000000 0
0.026370 0.000000 0
0.067814 0.000000 0
0.034201 0.000000 0
-0.001112 0.000000 0
-0.014370 0.000000 0
-0.017405 0.000000 0
-0.012728 0.000000 0
-0.010997 0.000000 0
-0.008801 0.000000 0
-0.006731 0.000000 0
-0.004823 0.000000 0
-0.002919 0.000000 0
-0.000836 0.000000 0
0.001275 0.000000 0
0.003179 0.000000 0
0.004850 0.000000 0
0.006075 0.000000 0
0.008250 0.000000 0
0.016213 0.000000 0
0.024166 0.000000 0
0.020028 0.000000 0
0.012202 0.000000 0
-0.002500 0.000000 0
-0.020830 0.000000 0
-0.027601 0.000000 0
-0.014137 0.000000 0
-0.005821 0.000000 0
-0.002956 0.000000 0
-0.002257 0.000000 0
-0.002754 0.000000 0
-0.002551 0.000000 0
-0.002382 0.000000 0
-0.002515 0.000000 0
-0.002702 0.000000 0
-0.002830 0.000000 0
-0.002813 0.000000 0
1.000000 0.000233 0
1.000224 0.000412 0
1.000761 0.000200 0
1.001666 -0.000165 0
1.002983 -0.000641 0
1.004766 -0.001147 0
1.007072 -0.001712 0
1.010009 -0.002437 0
1.013723 -0.003338 0
1.018408 -0.004478 0
1.024320 -0.005929 0
1.031793 -0.007785 0
1.041253 -0.010152 0
1.053239 -0.013139 0
1.068413 -0.016855 0
1.087568 -0.021395 0
1.111617 -0.026795 0
1.141515 -0.032934 0
1.178069 -0.039405 0
1.221602 -0.045350 0
1.271399 -0.049283 0
1.324783 -0.049157 0
1.376691 -0.042668 0
1.417897 -0.029231 0
1.440707 -0.011435 0
1.443009 0.006991 0
1.426635 0.023330 0
1.395140 0.036149 0
1.352391 0.044498 0
1.303093 0.047168 0
1.253360 0.042589 0
1.211209 0.029237 0
1.186147 0.006338 0
1.187905 -0.026286 0
1.230806 -0.065474 0
1.322507 -0.096395 0
1.442910 -0.095862 0
1.540394 -0.061868 0
1.586074 -0.013975 0
1.578341 0.030252 0
1.529260 0.061386 0
1.456168 0.079264 0
1.372160 0.087449 0
1.280684 0.084494 0
1.208423 0.055274 0
1.269314 0.002058 0
1.340853 -0.090522 0
1.026548 0.126699 0
0.647137 0.427795 0
0.445315 0.311014 0
0.367312 0.075635 0
0.381253 -0.088855 0
0.488283 -0.176732 0
0.649555 -0.190632 0
0.819295 -0.164121 0
0.968755 -0.141535 0
1.102792 -0.136573 0
1.231330 -0.132078 0
1.350890 -0.122162 0
1.456518 -0.105493 0
1.543302 -0.082413 0
1.603198 -0.049727 0
1.631255 -0.003304 0
1.630927 0.045360 0
1.574412 0.096496 0
1.405129 0.234858 0
1.136618 0.385344 0
0.910009 0.265161 0
0.785397 0.012226 0
0.741042 -0.117058 0
0.840038 -0.147252 0
0.973950 -0.124895 0
1.077104 -0.100990 0
1.161236 -0.082041 0
1.228002 -0.063468 0
1.279936 -0.046203 0
1.317938 -0.028796 0
1.340283 -0.009476 0
1.342147 0.011343 0
1.323703 0.031747 0
1.286344 0.049562 0
1.226082 0.061759 0
1.149331 0.082411 0
1.049053 0.151680 0
0.949186 0.212020 0
0.905780 0.180148 0
0.934637 0.096390 0
0.967286 -0.014090 0
0.927802 -0.142583 0
0.852066 -0.188524 0
0.837170 -0.129611 0
0.883837 -0.063371 0
0.949581 -0.030528 0
1.005523 -0.019066 0
1.040699 -0.015699 0
1.060410 -0.012350 0
1.073725 -0.008526 0
1.084521 -0.006637 0
1.094337 -0.005644 0
1.103032 -0.005409 0
1.109674 -0.005632 0
1.000000 -0.000233 0
1.000803 -0.000774 0
1.002131 -0.001450 0
1.003891 -0.002230 0
1.006062 -0.003109 0
1.008637 -0.004098 0
1.011739 -0.005251 0
1.015421 -0.006659 0
1.019813 -0.008406 0
1.025084 -0.010605 0
1.031456 -0.013392 0
1.039223 -0.016939 0
1.048762 -0.021453 0
1.060569 -0.027166 0
1.075280 -0.034335 0
1.093708 -0.043209 0
1.116881 -0.053952 0
1.146048 -0.066456 0
1.182528 -0.080089 0
1.227506 -0.093332 0
1.281529 -0.103181 0
1.342718 -0.105291 0
1.407913 -0.093114 0
1.460153 -0.064015 0
1.486913 -0.025109 0
1.487802 0.014075 0
1.467466 0.047873 0
1.431450 0.074249 0
1.383121 0.092052 0
1.326180 0.099036 0
1.265396 0.091889 0
1.209196 0.067218 0
1.168382 0.023310 0
1.149716 -0.044653 0
1.184248 -0.134596 0
1.288089 -0.212098 0
1.451175 -0.217880 0
1.593304 -0.143157 0
1.658881 -0.037941 0
1.653366 0.056821 0
1.599724 0.122180 0
1.519515 0.157107 0
1.424431 0.175492 0
1.322986 0.163745 0
1.241226 0.011377 0
1.186874 -0.132422 0
0.956968 0.242775 0
0.456303 0.693724 0
0.393463 0.581241 0
0.565076 0.279834 0
0.687425 0.064069 0
0.731540 -0.120964 0
0.735848 -0.268294 0
0.772340 -0.331005 0
0.858526 -0.319192 0
0.970798 -0.283489 0
1.080817 -0.262568 0
1.189243 -0.248091 0
1.289952 -0.225181 0
1.372157 -0.192405 0
1.434354 -0.146673 0
1.477071 -0.087947 0
1.483381 -0.027722 0
1.425560 0.056850 0
1.293959 0.225804 0
1.146831 0.437800 0
1.123803 0.495126 0
1.179522 0.351228 0
1.108365 0.168973 0
0.998700 -0.054635 0
0.941222 -0.232901 0
0.978942 -0.237059 0
1.041316 -0.187279 0
1.096148 -0.150891 0
1.143849 -0.118693 0
1.187097 -0.089929 0
1.226345 -0.060339 0
1.258706 -0.024201 0
1.269900 0.016588 0
1.258622 0.055812 0
1.221800 0.097631 0
1.169197 0.137023 0
1.168877 0.177039 0
1.102262 0.200156 0
1.034647 0.143284 0
1.003050 0.014561 0
0.987722 -0.061494 0
0.951160 0.006847 0
0.841325 0.115233 0
0.690809 0.090645 0
0.611994 -0.031758 0
0.634380 -0.112397 0
0.716791 -0.121672 0
0.814068 -0.091103 0
0.894577 -0.054872 0
0.947741 -0.033011 0
0.980487 -0.024096 0
1.001080 -0.020597 0
1.016428 -0.018496 0
1.028832 -0.015322 0
1.035860 -0.013227 0
1.000000 -0.000577 0
1.000610 -0.001728 0
1.001730 -0.002892 0
1.003281 -0.004099 0
1.005226 -0.005391 0
1.007567 -0.006828 0
1.010354 -0.008499 0
1.013648 -0.010515 0
1.017548 -0.013005 0
1.022188 -0.016125 0
1.027750 -0.020071 0
1.034479 -0.025094 0
1.042706 -0.031502 0
1.052881 -0.039660 0
1.065595 -0.049997 0
1.081643 -0.062998 0
1.102161 -0.079137 0
1.128858 -0.098584 0
1.163741 -0.120865 0
1.209485 -0.144352 0
1.269070 -0.164496 0
1.341803 -0.175541 0
1.437520 -0.160102 0
1.506046 -0.108231 0
1.537389 -0.039084 0
1.536654 0.026439 0
1.509663 0.079683 0
1.462523 0.120496 0
1.402147 0.149770 0
1.329302 0.164894 0
1.249986 0.159574 0
1.167939 0.126254 0
1.101379 0.065819 0
1.034701 -0.042151 0
1.041317 -0.203846 0
1.130427 -0.363320 0
1.337622 -0.401074 0
1.566668 -0.269572 0
1.686224 -0.074035 0
1.705161 0.089411 0
1.646904 0.195240 0
1.548490 0.254559 0
1.442286 0.283980 0
1.340831 0.267702 0
1.222890 0.191389 0
0.908977 0.286319 0
0.428433 0.640052 0
0.315014 0.690206 0
0.491799 0.319025 0
0.624041 0.017055 0
0.665360 -0.090826 0
0.713173 -0.137275 0
0.772626 -0.217530 0
0.841481 -0.313306 0
0.906510 -0.362576 0
0.972004 -0.363825 0
1.049646 -0.355016 0
1.138440 -0.341210 0
1.228315 -0.305074 0
1.293008 -0.249893 0
1.331696 -0.187325 0
1.361000 -0.098752 0
1.331239 0.048210 0
1.241439 0.234785 0
1.205096 0.375227 0
1.191133 0.405015 0
1.154060 0.352655 0
1.142073 0.280602 0
1.128789 0.193051 0
1.084585 0.050087 0
0.962464 -0.127493 0
0.897169 -0.224987 0
0.911819 -0.218193 0
0.936907 -0.184570 0
0.959740 -0.154414 0
0.995485 -0.128697 0
1.056097 -0.100401 0
1.112724 -0.053027 0
1.132655 0.011430 0
1.130100 0.079850 0
1.168000 0.138991 0
1.178317 0.114687 0
1.019864 0.149351 0
0.886834 0.285916 0
0.835330 0.311236 0
0.744842 0.227077 0
0.592498 0.148286 0
0.467688 0.132312 0
0.444009 0.117774 0
0.490220 0.040814 0
0.518728 -0.073176 0
0.530171 -0.168162 0
0.560491 -0.210210 0
0.625717 -0.196846 0
0.712148 -0.149366 0
0.790020 -0.098254 0
0.844796 -0.061858 0
0.877531 -0.042571 0
0.897014 -0.033390 0
0.915340 -0.024834 0
0.922703 -0.019448 0
1.000000 -0.000850 0
1.000479 -0.002514 0
1.001413 -0.004125 0
1.002732 -0.005730 0
1.004404 -0.007400 0
1.006419 -0.009229 0
1.008800 -0.011336 0
1.011589 -0.013857 0
1.014850 -0.016950 0
1.018675 -0.020811 0
1.023193 -0.025687 0
1.028578 -0.031899 0
1.035092 -0.039858 0
1.043114 -0.050058 0
1.053137 -0.063100 0
1.065802 -0.079779 0
1.082124 -0.101169 0
1.104553 -0.128038 0
1.135365 -0.160719 0
1.179628 -0.198662 0
1.243220 -0.235501 0
1.327822 -0.273743 0
1.488415 -0.257357 0
1.581575 -0.163884 0
1.613959 -0.055716 0
1.607565 0.041802 0
1.571862 0.122005 0
1.513839 0.181767 0
1.439320 0.225274 0
1.346025 0.251198 0
1.215456 0.253253 0
1.079492 0.215826 0
1.080594 0.156549 0
0.924756 0.015411 0
0.782930 -0.230320 0
0.731725 -0.508401 0
0.915430 -0.654119 0
1.286054 -0.491757 0
1.489679 -0.176432 0
1.608578 0.096143 0
1.634118 0.278853 0
1.571589 0.361727 0
1.455522 0.383153 0
1.326929 0.383143 0
1.178562 0.443234 0
0.932207 0.662037 0
0.743066 0.836740 0
0.788431 0.630360 0
0.766762 0.272217 0
0.573260 0.106276 0
0.410989 -0.025060 0
0.405899 -0.228228 0
0.507193 -0.396600 0
0.634979 -0.464886 0
0.753126 -0.449713 0
0.829280 -0.426623 0
0.901343 -0.429001 0
1.012285 -0.426758 0
1.123819 -0.379747 0
1.198222 -0.295783 0
1.222101 -0.214664 0
1.280123 -0.087488 0
1.359628 0.091841 0
1.322996 0.182995 0
1.201223 0.276113 0
1.089670 0.488838 0
1.020592 0.544189 0
0.972473 0.376502 0
0.916667 0.226463 0
0.867041 0.111693 0
0.827841 -0.045483 0
0.796318 -0.186411 0
0.806343 -0.227014 0
0.816435 -0.198809 0
0.784786 -0.177268 0
0.739149 -0.186282 0
0.745877 -0.177574 0
0.837924 -0.100755 0
0.968530 -0.000784 0
1.045121 0.020470 0
1.029434 0.049417 0
0.919010 0.285164 0
0.695429 0.468527 0
0.617440 0.384695 0
0.651564 0.285282 0
0.628166 0.257398 0
0.603880 0.215665 0
0.633630 0.155342 0
0.708781 0.092707 0
0.770757 0.015932 0
0.774399 -0.071703 0
0.717659 -0.154153 0
0.644042 -0.217212 0
0.607430 -0.242753 0
0.626844 -0.219168 0
0.677510 -0.165653 0
0.727489 -0.111600 0
0.762250 -0.072808 0
0.778803 -0.056298 0
0.795199 -0.041005 0
0.801905 -0.027531 0
1.000000 -0.001063 0
1.000346 -0.003150 0
1.001109 -0.005150 0
1.002186 -0.007095 0
1.003554 -0.009083 0
1.005190 -0.011229 0
1.007100 -0.013674 0
1.009304 -0.016569 0
1.011820 -0.020095 0
1.014696 -0.024472 0
1.017989 -0.029978 0
1.021771 -0.036997 0
1.026197 -0.046042 0
1.031586 -0.057710 0
1.038294 -0.072688 0
1.046581 -0.091988 0
1.056314 -0.117892 0
1.072261 -0.151828 0
1.094216 -0.195943 0
1.132115 -0.252208 0
1.189399 -0.312691 0
1.283399 -0.420738 0
1.574369 -0.413856 0
1.667674 -0.233775 0
1.678718 -0.065073 0
1.663669 0.068537 0
1.622714 0.173409 0
1.567689 0.253038 0
1.505848 0.317585 0
1.408646 0.388760 0
1.264150 0.426108 0
1.059705 0.261116 0
0.642343 0.220555 0
0.443225 0.255514 0
0.304311 -0.010813 0
0.204383 -0.495820 0
0.272023 -0.955402 0
0.585234 -0.843820 0
1.030184 -0.396558 0
1.250213 -0.055026 0
1.375400 0.232231 0
1.440998 0.433157 0
1.412174 0.528641 0
1.314215 0.544663 0
1.177271 0.586113 0
1.057552 0.721818 0
1.048882 0.783830 0
1.093341 0.666511 0
0.986454 0.534197 0
0.818864 0.372830 0
0.717316 0.076537 0
0.612240 -0.233476 0
0.517400 -0.446607 0
0.457149 -0.559238 0
0.521501 -0.556875 0
0.620200 -0.512039 0
0.671712 -0.538019 0
0.761492 -0.563684 0
0.941679 -0.491009 0
1.094810 -0.348173 0
1.111362 -0.269224 0
1.025780 -0.236277 0
0.954584 0.005339 0
0.866343 0.393193 0
0.728720 0.608555 0
0.677072 0.585648 0
0.746900 0.469854 0
0.749969 0.384529 0
0.685457 0.298485 0
0.658873 0.138916 0
0.653474 -0.056767 0
0.643245 -0.203487 0
0.657009 -0.238307 0
0.706065 -0.163010 0
0.741914 -0.077125 0
0.707178 -0.089784 0
0.622130 -0.199173 0
0.622835 -0.275676 0
0.753997 -0.195763 0
0.877513 0.018950 0
0.844804 0.265107 0
0.768474 0.448697 0
0.873717 0.450925 0
0.932553 0.329786 0
0.786116 0.300516 0
0.670991 0.274766 0
0.654141 0.142828 0
0.672230 0.027417 0
0.702127 -0.019348 0
0.739216 -0.024797 0
0.771218 -0.020072 0
0.784751 -0.037799 0
0.761870 -0.099974 0
0.705099 -0.179641 0
0.657857 -0.219439 0
0.654072 -0.198892 0
0.677797 -0.146592 0
0.708584 -0.093879 0
0.726265 -0.066333 0
0.709658 -0.047929 0
0.710991 -0.032469 0
1.000000 -0.001204 0
1.000125 -0.003633 0
1.000770 -0.005970 0
1.001599 -0.008180 0
1.002659 -0.010408 0
1.003887 -0.012780 0
1.005287 -0.015455 0
1.006877 -0.018581 0
1.008589 -0.022347 0
1.010459 -0.026986 0
1.012465 -0.032766 0
1.014507 -0.040112 0
1.016565 -0.049678 0
1.018973 -0.062159 0
1.022093 -0.078099 0
1.026093 -0.097803 0
1.025543 -0.126853 0
1.034952 -0.165944 0
1.040380 -0.220576 0
1.067503 -0.293848 0
1.090150 -0.386787 0
1.229654 -0.658715 0
1.580989 -0.641633 0
1.531497 -0.268233 0
1.461891 -0.051711 0
1.464236 0.097807 0
1.441901 0.217986 0
1.429542 0.298633 0
1.441880 0.384318 0
1.427366 0.492897 0
1.302847 0.602194 0
1.119297 0.837633 0
0.729427 0.773029 0
0.493406 0.353443 0
0.205180 0.008523 0
0.172747 -0.476113 0
0.112138 -1.034970 0
0.096627 -1.249917 0
0.504094 -0.841410 0
0.842876 -0.249072 0
1.042154 0.088070 0
1.155570 0.324954 0
1.244317 0.509938 0
1.259097 0.618049 0
1.198133 0.699898 0
1.134285 0.790427 0
1.150110 0.800953 0
1.181831 0.692790 0
1.163101 0.546695 0
1.151490 0.375416 0
1.128060 0.181566 0
0.974506 -0.028310 0
0.726059 -0.241507 0
0.538746 -0.468985 0
0.501783 -0.612762 0
0.618556 -0.576832 0
0.704755 -0.570292 0
0.696752 -0.696724 0
0.754748 -0.713063 0
0.906329 -0.465464 0
0.956551 -0.145631 0
0.759052 0.069292 0
0.461906 0.251280 0
0.337174 0.408861 0
0.398360 0.465386 0
0.555811 0.470660 0
0.672303 0.471293 0
0.662326 0.437947 0
0.638422 0.317562 0
0.608118 0.143678 0
0.528898 -0.029852 0
0.429191 -0.189944 0
0.380614 -0.289831 0
0.420516 -0.283711 0
0.567580 -0.178377 0
0.743056 -0.066495 0
0.838112 -0.093228 0
0.797495 -0.232618 0
0.718552 -0.255458 0
0.728442 -0.070333 0
0.816922 0.158461 0
0.932353 0.256256 0
0.996283 0.304454 0
0.888628 0.472301 0
0.719495 0.546849 0
0.694277 0.389378 0
0.716497 0.214432 0
0.678453 0.107363 0
0.614233 0.025727 0
0.580868 -0.053153 0
0.591542 -0.117232 0
0.651956 -0.144799 0
0.728652 -0.137554 0
0.762107 -0.138735 0
0.739597 -0.168134 0
0.703813 -0.185585 0
0.683175 -0.166104 0
0.670237 -0.121269 0
0.667449 -0.057365 0
0.662619 -0.025724 0
0.665000 -0.029608 0
1.000000 -0.001197 0
0.999931 -0.003932 0
1.000437 -0.006628 0
1.001028 -0.008990 0
1.001710 -0.011376 0
1.002496 -0.013862 0
1.003384 -0.016669 0
1.004435 -0.019877 0
1.005312 -0.023683 0
1.006195 -0.028353 0
1.007055 -0.034031 0
1.007505 -0.041102 0
1.007289 -0.050512 0
1.007110 -0.063243 0
1.005174 -0.079814 0
1.006223 -0.095442 0
0.999892 -0.126755 0
1.001756 -0.166671 0
0.985308 -0.228498 0
0.997566 -0.301981 0
0.955070 -0.474845 0
1.086087 -0.911580 0
0.766262 -0.601024 0
0.002983 0.000000 0
0.001298 0.000000 0
0.624001 0.086338 0
0.725527 0.208103 0
0.586825 0.253060 0
0.936896 0.319761 0
1.013038 0.527793 0
1.077494 0.734176 0
1.044103 0.834536 0
1.034990 0.846447 0
0.719621 0.779761 0
0.453228 0.309846 0
0.415562 -0.402777 0
0.338651 -0.879281 0
0.195186 -1.235776 0
0.193609 -1.142807 0
0.538010 -0.593085 0
0.800340 -0.080462 0
0.965916 0.230996 0
1.077654 0.425116 0
1.141523 0.590848 0
1.177548 0.710926 0
1.216119 0.769843 0
1.281393 0.736286 0
1.299090 0.653521 0
1.245065 0.564540 0
1.174141 0.407872 0
1.058010 0.253522 0
0.981670 0.168527 0
0.913140 -0.010846 0
0.840676 -0.334960 0
0.741326 -0.636682 0
0.770939 -0.715011 0
0.886964 -0.616214 0
0.877710 -0.613675 0
0.729466 -0.700584 0
0.689383 -0.549975 0
0.754083 -0.121945 0
0.732531 0.258369 0
0.620716 0.427219 0
0.582824 0.456741 0
0.640425 0.389920 0
0.690819 0.311707 0
0.610934 0.363341 0
0.555310 0.418412 0
0.609648 0.352695 0
0.660027 0.248443 0
0.621926 0.122163 0
0.486906 -0.055201 0
0.324928 -0.229630 0
0.220148 -0.349973 0
0.243058 -0.399662 0
0.401930 -0.360312 0
0.600268 -0.253608 0
0.684213 -0.156112 0
0.626652 -0.126706 0
0.581554 -0.079416 0
0.609941 0.061201 0
0.631370 0.269341 0
0.556549 0.494655 0
0.521269 0.606579 0
0.700552 0.494872 0
0.867806 0.277770 0
0.841760 0.158658 0
0.733034 0.129687 0
0.686877 0.078244 0
0.699895 -0.002100 0
0.701907 -0.091153 0
0.672489 -0.174902 0
0.660250 -0.210119 0
0.689242 -0.190580 0
0.720837 -0.161138 0
0.724005 -0.142464 0
0.701549 -0.113008 0
0.674828 -0.078145 0
0.649544 -0.058708 0
0.674177 -0.045474 0
0.679881 -0.036912 0
1.000000 -0.001145 0
0.999904 -0.004082 0
0.999986 -0.007072 0
1.000528 -0.009459 0
1.000796 -0.011882 0
1.001093 -0.014460 0
1.001403 -0.017400 0
1.002221 -0.020515 0
1.002637 -0.024112 0
1.001385 -0.028733 0
1.002769 -0.034081 0
1.000984 -0.040351 0
1.000728 -0.049288 0
0.995718 -0.060050 0
0.995924 -0.077217 0
0.984693 -0.092526 0
0.988982 -0.122392 0
0.960087 -0.151365 0
0.959002 -0.216391 0
0.893155 -0.263614 0
0.876123 -0.475312 0
0.645038 -0.584587 0
0.000000 -0.006190 0
-0.674918 0.227260 0
-0.611408 0.000000 0
0.000000 0.000000 0
0.103541 0.272366 0
0.203587 0.087264 0
0.323287 -0.041897 0
0.784401 0.352299 0
0.798059 0.571130 0
0.702254 0.880136 0
0.585393 1.097510 0
0.317544 0.935204 0
0.407004 0.312581 0
0.441029 -0.361535 0
0.447358 -0.814594 0
0.401082 -1.104875 0
0.248026 -1.184234 0
0.362420 -0.855803 0
0.592747 -0.339836 0
0.806706 0.047641 0
0.918629 0.334332 0
0.991126 0.518156 0
1.060844 0.625304 0
1.130363 0.686582 0
1.166404 0.717983 0
1.139529 0.729120 0
1.104972 0.671645 0
1.089991 0.562472 0
1.018231 0.374039 0
0.999331 0.116562 0
1.067884 -0.100512 0
1.076105 -0.297170 0
0.963193 -0.543024 0
0.834219 -0.722469 0
0.799352 -0.677061 0
0.768877 -0.539224 0
0.607028 -0.524735 0
0.454337 -0.490080 0
0.532989 -0.188778 0
0.692072 0.202661 0
0.838043 0.400989 0
0.932022 0.389152 0
0.959908 0.357393 0
0.781282 0.500153 0
0.557325 0.606803 0
0.517732 0.439235 0
0.544767 0.212848 0
0.603745 0.131403 0
0.694215 0.143271 0
0.715054 0.107057 0
0.595464 -0.023071 0
0.427656 -0.201838 0
0.301650 -0.360156 0
0.260123 -0.423702 0
0.306678 -0.375508 0
0.411846 -0.258998 0
0.490915 -0.152794 0
0.492903 -0.053617 0
0.464422 0.108650 0
0.458919 0.309653 0
0.552801 0.414559 0
0.762106 0.328303 0
0.942181 0.200318 0
0.943224 0.248175 0
0.836380 0.349210 0
0.788375 0.262252 0
0.792384 0.058872 0
0.790825 -0.068177 0
0.796702 -0.089819 0
0.784977 -0.103135 0
0.720113 -0.154299 0
0.655316 -0.199315 0
0.646369 -0.202891 0
0.679475 -0.166290 0
0.731984 -0.116920 0
0.789249 -0.069257 0
0.824379 -0.056708 0
0.831533 -0.056054 0
0.833106 -0.041452 0
1.000000 -0.001112 0
0.999918 -0.003931 0
0.999667 -0.007257 0
0.999977 -0.009805 0
1.000055 -0.011947 0
1.000187 -0.014475 0
0.999466 -0.017803 0
1.000302 -0.021116 0
1.000009 -0.022853 0
0.999716 -0.028491 0
0.996161 -0.033636 0
0.996218 -0.039067 0
0.994498 -0.045252 0
0.991360 -0.058444 0
0.984145 -0.068794 0
0.973223 -0.088506 0
0.967074 -0.102155 0
0.940574 -0.136696 0
0.921149 -0.161572 0
0.839890 -0.219108 0
0.802007 -0.226734 0
0.452088 -0.134922 0
0.326548 -0.055447 0
0.000000 0.000000 0
0.000000 0.000000 0
0.000000 0.000000 0
0.000000 0.000000 0
0.250647 0.011595 0
0.080048 -0.261054 0
0.400508 0.053019 0
0.414375 0.816323 0
0.297742 1.047201 0
0.151565 1.231156 0
0.188719 0.958149 0
0.482111 0.186360 0
0.600096 -0.443132 0
0.579635 -0.839334 0
0.541668 -1.036445 0
0.456215 -1.104145 0
0.367682 -0.937806 0
0.487364 -0.524748 0
0.663595 -0.094886 0
0.822001 0.240695 0
0.943738 0.448633 0
1.012867 0.571690 0
1.062153 0.664284 0
1.095046 0.727121 0
1.133261 0.714954 0
1.181780 0.614079 0
1.172959 0.494614 0
1.142346 0.344182 0
1.096404 0.118875 0
1.075527 -0.087619 0
1.024014 -0.230268 0
0.901521 -0.394795 0
0.730131 -0.551168 0
0.619277 -0.550871 0
0.592489 -0.421350 0
0.536651 -0.386043 0