# vtk DataFile Version 2.0
generated by CFD-lab course output (written by Tobias Neckel) 
ASCII

DATASET STRUCTURED_GRID
DIMENSIONS  101 21 1 
POINTS 2121 float

0.000000 0.000000 0
0.100000 0.000000 0
0.200000 0.000000 0
0.300000 0.000000 0
0.400000 0.000000 0
0.500000 0.000000 0
0.600000 0.000000 0
0.700000 0.000000 0
0.800000 0.000000 0
0.900000 0.000000 0
1.000000 0.000000 0
1.100000 0.000000 0
1.200000 0.000000 0
1.300000 0.000000 0
1.400000 0.000000 0
1.500000 0.000000 0
1.600000 0.000000 0
1.700000 0.000000 0
1.800000 0.000000 0
1.900000 0.000000 0
2.000000 0.000000 0
2.100000 0.000000 0
2.200000 0.000000 0
2.300000 0.000000 0
2.400000 0.000000 0
2.500000 0.000000 0
2.600000 0.000000 0
2.700000 0.000000 0
2.800000 0.000000 0
2.900000 0.000000 0
3.000000 0.000000 0
3.100000 0.000000 0
3.200000 0.000000 0
3.300000 0.000000 0
3.400000 0.000000 0
3.500000 0.000000 0
3.600000 0.000000 0
3.700000 0.000000 0
3.800000 0.000000 0
3.900000 0.000000 0
4.000000 0.000000 0
4.100000 0.000000 0
4.200000 0.000000 0
4.300000 0.000000 0
4.400000 0.000000 0
4.500000 0.000000 0
4.600000 0.000000 0
4.700000 0.000000 0
4.800000 0.000000 0
4.900000 0.000000 0
5.000000 0.000000 0
5.100000 0.000000 0
5.200000 0.000000 0
5.300000 0.000000 0
5.400000 0.000000 0
5.500000 0.000000 0
5.600000 0.000000 0
5.700000 0.000000 0
5.800000 0.000000 0
5.900000 0.000000 0
6.000000 0.000000 0
6.100000 0.000000 0
6.200000 0.000000 0
6.300000 0.000000 0
6.400000 0.000000 0
6.500000 0.000000 0
6.600000 0.000000 0
6.700000 0.000000 0
6.800000 0.000000 0
6.900000 0.000000 0
7.000000 0.000000 0
7.100000 0.000000 0
7.200000 0.000000 0
7.300000 0.000000 0
7.400000 0.000000 0
7.500000 0.000000 0
7.600000 0.000000 0
7.700000 0.000000 0
7.800000 0.000000 0
7.900000 0.000000 0
8.000000 0.000000 0
8.100000 0.000000 0
8.200000 0.000000 0
8.300000 0.000000 0
8.400000 0.000000 0
8.500000 0.000000 0
8.600000 0.000000 0
8.700000 0.000000 0
8.800000 0.000000 0
8.900000 0.000000 0
9.000000 0.000000 0
9.100000 0.000000 0
9.200000 0.000000 0
9.300000 0.000000 0
9.400000 0.000000 0
9.500000 0.000000 0
9.600000 0.000000 0
9.700000 0.000000 0
9.800000 0.000000 0
9.900000 0.000000 0
10.000000 0.000000 0
0.000000 0.100000 0
0.100000 0.100000 0
0.200000 0.100000 0
0.300000 0.100000 0
0.400000 0.100000 0
0.500000 0.100000 0
0.600000 0.100000 0
0.700000 0.100000 0
0.800000 0.100000 0
0.900000 0.100000 0
1.000000 0.100000 0
1.100000 0.100000 0
1.200000 0.100000 0
1.300000 0.100000 0
1.400000 0.100000 0
1.500000 0.100000 0
1.600000 0.100000 0
1.700000 0.100000 0
1.800000 0.100000 0
1.900000 0.100000 0
2.000000 0.100000 0
2.100000 0.100000 0
2.200000 0.100000 0
2.300000 0.100000 0
2.400000 0.100000 0
2.500000 0.100000 0
2.600000 0.100000 0
2.700000 0.100000 0
2.800000 0.100000 0
2.900000 0.100000 0
3.000000 0.100000 0
3.100000 0.100000 0
3.200000 0.100000 0
3.300000 0.100000 0
3.400000 0.100000 0
3.500000 0.100000 0
3.600000 0.100000 0
3.700000 0.100000 0
3.800000 0.100000 0
3.900000 0.100000 0
4.000000 0.100000 0
4.100000 0.100000 0
4.200000 0.100000 0
4.300000 0.100000 0
4.400000 0.100000 0
4.500000 0.100000 0
4.600000 0.100000 0
4.700000 0.100000 0
4.800000 0.100000 0
4.900000 0.100000 0
5.000000 0.100000 0
5.100000 0.100000 0
5.200000 0.100000 0
5.300000 0.100000 0
5.400000 0.100000 0
5.500000 0.100000 0
5.600000 0.100000 0
5.700000 0.100000 0
5.800000 0.100000 0
5.900000 0.100000 0
6.000000 0.100000 0
6.100000 0.100000 0
6.200000 0.100000 0
6.300000 0.100000 0
6.400000 0.100000 0
6.500000 0.100000 0
6.600000 0.100000 0
6.700000 0.100000 0
6.800000 0.100000 0
6.900000 0.100000 0
7.000000 0.100000 0
7.100000 0.100000 0
7.200000 0.100000 0
7.300000 0.100000 0
7.400000 0.100000 0
7.500000 0.100000 0
7.600000 0.100000 0
7.700000 0.100000 0
7.800000 0.100000 0
7.900000 0.100000 0
8.000000 0.100000 0
8.100000 0.100000 0
8.200000 0.100000 0
8.300000 0.100000 0
8.400000 0.100000 0
8.500000 0.100000 0
8.600000 0.100000 0
8.700000 0.100000 0
8.800000 0.100000 0
8.900000 0.100000 0
9.000000 0.100000 0
9.100000 0.100000 0
9.200000 0.100000 0
9.300000 0.100000 0
9.400000 0.100000 0
9.500000 0.100000 0
9.600000 0.100000 0
9.700000 0.100000 0
9.800000 0.100000 0
9.900000 0.100000 0
10.000000 0.100000 0
0.000000 0.200000 0
0.100000 0.200000 0
0.200000 0.200000 0
0.300000 0.200000 0
0.400000 0.200000 0
0.500000 0.200000 0
0.600000 0.200000 0
0.700000 0.200000 0
0.800000 0.200000 0
0.900000 0.200000 0
1.000000 0.200000 0
1.100000 0.200000 0
1.200000 0.200000 0
1.300000 0.200000 0
1.400000 0.200000 0
1.500000 0.200000 0
1.600000 0.200000 0
1.700000 0.200000 0
1.800000 0.200000 0
1.900000 0.200000 0
2.000000 0.200000 0
2.100000 0.200000 0
2.200000 0.200000 0
2.300000 0.200000 0
2.400000 0.200000 0
2.500000 0.200000 0
2.600000 0.200000 0
2.700000 0.200000 0
2.800000 0.200000 0
2.900000 0.200000 0
3.000000 0.200000 0
3.100000 0.200000 0
3.200000 0.200000 0
3.300000 0.200000 0
3.400000 0.200000 0
3.500000 0.200000 0
3.600000 0.200000 0
3.700000 0.200000 0
3.800000 0.200000 0
3.900000 0.200000 0
4.000000 0.200000 0
4.100000 0.200000 0
4.200000 0.200000 0
4.300000 0.200000 0
4.400000 0.200000 0
4.500000 0.200000 0
4.600000 0.200000 0
4.700000 0.200000 0
4.800000 0.200000 0
4.900000 0.200000 0
5.000000 0.200000 0
5.100000 0.200000 0
5.200000 0.200000 0
5.300000 0.200000 0
5.400000 0.200000 0
5.500000 0.200000 0
5.600000 0.200000 0
5.700000 0.200000 0
5.800000 0.200000 0
5.900000 0.200000 0
6.000000 0.200000 0
6.100000 0.200000 0
6.200000 0.200000 0
6.300000 0.200000 0
6.400000 0.200000 0
6.500000 0.200000 0
6.600000 0.200000 0
6.700000 0.200000 0
6.800000 0.200000 0
6.900000 0.200000 0
7.000000 0.200000 0
7.100000 0.200000 0
7.200000 0.200000 0
7.300000 0.200000 0
7.400000 0.200000 0
7.500000 0.200000 0
7.600000 0.200000 0
7.700000 0.200000 0
7.800000 0.200000 0
7.900000 0.200000 0
8.000000 0.200000 0
8.100000 0.200000 0
8.200000 0.200000 0
8.300000 0.200000 0
8.400000 0.200000 0
8.500000 0.200000 0
8.600000 0.200000 0
8.700000 0.200000 0
8.800000 0.200000 0
8.900000 0.200000 0
9.000000 0.200000 0
9.100000 0.200000 0
9.200000 0.200000 0
9.300000 0.200000 0
9.400000 0.200000 0
9.500000 0.200000 0
9.600000 0.200000 0
9.700000 0.200000 0
9.800000 0.200000 0
9.900000 0.200000 0
10.000000 0.200000 0
0.000000 0.300000 0
0.100000 0.300000 0
0.200000 0.300000 0
0.300000 0.300000 0
0.400000 0.300000 0
0.500000 0.300000 0
0.600000 0.300000 0
0.700000 0.300000 0
0.800000 0.300000 0
0.900000 0.300000 0
1.000000 0.300000 0
1.100000 0.300000 0
1.200000 0.300000 0
1.300000 0.300000 0
1.400000 0.300000 0
1.500000 0.300000 0
1.600000 0.300000 0
1.700000 0.300000 0
1.800000 0.300000 0
1.900000 0.300000 0
2.000000 0.300000 0
2.100000 0.300000 0
2.200000 0.300000 0
2.300000 0.300000 0
2.400000 0.300000 0
2.500000 0.300000 0
2.600000 0.300000 0
2.700000 0.300000 0
2.800000 0.300000 0
2.900000 0.300000 0
3.000000 0.300000 0
3.100000 0.300000 0
3.200000 0.300000 0
3.300000 0.300000 0
3.400000 0.300000 0
3.500000 0.300000 0
3.600000 0.300000 0
3.700000 0.300000 0
3.800000 0.300000 0
3.900000 0.300000 0
4.000000 0.300000 0
4.100000 0.300000 0
4.200000 0.300000 0
4.300000 0.300000 0
4.400000 0.300000 0
4.500000 0.300000 0
4.600000 0.300000 0
4.700000 0.300000 0
4.800000 0.300000 0
4.900000 0.300000 0
5.000000 0.300000 0
5.100000 0.300000 0
5.200000 0.300000 0
5.300000 0.300000 0
5.400000 0.300000 0
5.500000 0.300000 0
5.600000 0.300000 0
5.700000 0.300000 0
5.800000 0.300000 0
5.900000 0.300000 0
6.000000 0.300000 0
6.100000 0.300000 0
6.200000 0.300000 0
6.300000 0.300000 0
6.400000 0.300000 0
6.500000 0.300000 0
6.600000 0.300000 0
6.700000 0.300000 0
6.800000 0.300000 0
6.900000 0.300000 0
7.000000 0.300000 0
7.100000 0.300000 0
7.200000 0.300000 0
7.300000 0.300000 0
7.400000 0.300000 0
7.500000 0.300000 0
7.600000 0.300000 0
7.700000 0.300000 0
7.800000 0.300000 0
7.900000 0.300000 0
8.000000 0.300000 0
8.100000 0.300000 0
8.200000 0.300000 0
8.300000 0.300000 0
8.400000 0.300000 0
8.500000 0.300000 0
8.600000 0.300000 0
8.700000 0.300000 0
8.800000 0.300000 0
8.900000 0.300000 0
9.000000 0.300000 0
9.100000 0.300000 0
9.200000 0.300000 0
9.300000 0.300000 0
9.400000 0.300000 0
9.500000 0.300000 0
9.600000 0.300000 0
9.700000 0.300000 0
9.800000 0.300000 0
9.900000 0.300000 0
10.000000 0.300000 0
0.000000 0.400000 0
0.100000 0.400000 0
0.200000 0.400000 0
0.300000 0.400000 0
0.400000 0.400000 0
0.500000 0.400000 0
0.600000 0.400000 0
0.700000 0.400000 0
0.800000 0.400000 0
0.900000 0.400000 0
1.000000 0.400000 0
1.100000 0.400000 0
1.200000 0.400000 0
1.300000 0.400000 0
1.400000 0.400000 0
1.500000 0.400000 0
1.600000 0.400000 0
1.700000 0.400000 0
1.800000 0.400000 0
1.900000 0.400000 0
2.000000 0.400000 0
2.100000 0.400000 0
2.200000 0.400000 0
2.300000 0.400000 0
2.400000 0.400000 0
2.500000 0.400000 0
2.600000 0.400000 0
2.700000 0.400000 0
2.800000 0.400000 0
2.900000 0.400000 0
3.000000 0.400000 0
3.100000 0.400000 0
3.200000 0.400000 0
3.300000 0.400000 0
3.400000 0.400000 0
3.500000 0.400000 0
3.600000 0.400000 0
3.700000 0.400000 0
3.800000 0.400000 0
3.900000 0.400000 0
4.000000 0.400000 0
4.100000 0.400000 0
4.200000 0.400000 0
4.300000 0.400000 0
4.400000 0.400000 0
4.500000 0.400000 0
4.600000 0.400000 0
4.700000 0.400000 0
4.800000 0.400000 0
4.900000 0.400000 0
5.000000 0.400000 0
5.100000 0.400000 0
5.200000 0.400000 0
5.300000 0.400000 0
5.400000 0.400000 0
5.500000 0.400000 0
5.600000 0.400000 0
5.700000 0.400000 0
5.800000 0.400000 0
5.900000 0.400000 0
6.000000 0.400000 0
6.100000 0.400000 0
6.200000 0.400000 0
6.300000 0.400000 0
6.400000 0.400000 0
6.500000 0.400000 0
6.600000 0.400000 0
6.700000 0.400000 0
6.800000 0.400000 0
6.900000 0.400000 0
7.000000 0.400000 0
7.100000 0.400000 0
7.200000 0.400000 0
7.300000 0.400000 0
7.400000 0.400000 0
7.500000 0.400000 0
7.600000 0.400000 0
7.700000 0.400000 0
7.800000 0.400000 0
7.900000 0.400000 0
8.000000 0.400000 0
8.100000 0.400000 0
8.200000 0.400000 0
8.300000 0.400000 0
8.400000 0.400000 0
8.500000 0.400000 0
8.600000 0.400000 0
[...]
POINT_DATA 2121 

VECTORS velocity float
0.500000 0.000000 0
-0.000004 0.000000 0
-0.000010 0.000000 0
-0.000020 0.000000 0
-0.000027 0.000000 0
-0.000030 0.000000 0
-0.000032 0.000000 0
-0.000030 0.000000 0
-0.000022 0.000000 0
-0.000007 0.000000 0
0.000014 0.000000 0
0.000041 0.000000 0
0.000074 0.000000 0
0.000114 0.000000 0
0.000159 0.000000 0
0.000212 0.000000 0
0.000271 0.000000 0
0.000337 0.000000 0
0.000411 0.000000 0
0.000500 0.000000 0
0.000616 0.000000 0
0.000777 0.000000 0
0.001008 0.000000 0
0.001329 0.000000 0
0.001659 0.000000 0
0.002003 0.000000 0
0.002306 0.000000 0
0.002691 0.000000 0
0.003086 0.000000 0
0.003417 0.000000 0
0.003663 0.000000 0
0.003796 0.000000 0
0.004013 0.000000 0
0.003006 0.000000 0
0.001357 0.000000 0
-0.000998 0.000000 0
-0.004463 0.000000 0
-0.009417 0.000000 0
-0.015907 0.000000 0
-0.023966 0.000000 0
-0.030520 0.000000 0
-0.043647 0.000000 0
-0.044408 0.000000 0
-0.027556 0.000000 0
-0.012418 0.000000 0
0.002894 0.000000 0
0.014167 0.000000 0
0.020252 0.000000 0
0.027521 0.000000 0
0.026217 0.000000 0
0.023643 0.000000 0
0.020481 0.000000 0
0.016496 0.000000 0
0.011835 0.000000 0
0.008170 0.000000 0
0.008351 0.000000 0
0.006013 0.000000 0
0.002521 0.000000 0
-0.000350 0.000000 0
-0.002042 0.000000 0
-0.000766 0.000000 0
0.000268 0.000000 0
0.000276 0.000000 0
-0.000266 0.000000 0
-0.000872 0.000000 0
-0.001208 0.000000 0
-0.000980 0.000000 0
-0.000774 0.000000 0
-0.000670 0.000000 0
-0.000616 0.000000 0
-0.000573 0.000000 0
-0.000530 0.000000 0
-0.000492 0.000000 0
-0.000467 0.000000 0
-0.000452 0.000000 0
-0.000438 0.000000 0
-0.000419 0.000000 0
-0.000405 0.000000 0
-0.000402 0.000000 0
-0.000402 0.000000 0
-0.000392 0.000000 0
-0.000369 0.000000 0
-0.000347 0.000000 0
-0.000344 0.000000 0
-0.000355 0.000000 0
-0.000356 0.000000 0
-0.000328 0.000000 0
-0.000282 0.000000 0
-0.000247 0.000000 0
-0.000247 0.000000 0
-0.000280 0.000000 0
-0.000313 0.000000 0
-0.000322 0.000000 0
-0.000294 0.000000 0
-0.000271 0.000000 0
-0.000254 0.000000 0
-0.000240 0.000000 0
-0.000231 0.000000 0
-0.000225 0.000000 0
-0.000221 0.000000 0
-0.000221 0.000000 0
1.000000 0.000282 0
1.000146 0.000527 0
1.000590 0.000302 0
1.001467 -0.000223 0
1.002893 -0.000848 0
1.004929 -0.001490 0
1.007657 -0.002255 0
1.011179 -0.003146 0
1.015617 -0.004183 0
1.021137 -0.005418 0
1.027962 -0.006921 0
1.036388 -0.008783 0
1.046806 -0.011106 0
1.059720 -0.014011 0
1.075768 -0.017628 0
1.095734 -0.022074 0
1.120532 -0.027415 0
1.151144 -0.033581 0
1.188470 -0.040232 0
1.233001 -0.046568 0
1.284249 -0.051141 0
1.339772 -0.051944 0
1.395101 -0.046463 0
1.440871 -0.033595 0
1.468543 -0.015630 0
1.475543 0.004061 0
1.462121 0.023229 0
1.430537 0.041005 0
1.381920 0.057052 0
1.318362 0.070800 0
1.242314 0.081636 0
1.156373 0.086948 0
1.063265 0.102487 0
0.958304 0.111226 0
0.852518 0.096950 0
0.759267 0.078780 0
0.684381 0.049342 0
0.635093 0.005031 0
0.617741 -0.062788 0
0.670539 -0.148418 0
0.850614 -0.244012 0
1.138878 -0.337684 0
1.478643 -0.361217 0
1.810449 -0.272562 0
2.066566 -0.147972 0
2.195116 -0.040496 0
2.204329 0.051481 0
2.138775 0.117424 0
2.019104 0.164718 0
1.851061 0.184871 0
1.679560 0.181911 0
1.527185 0.169257 0
1.397902 0.146315 0
1.288618 0.115148 0
1.195072 0.092393 0
1.114802 0.082875 0
1.051716 0.068257 0
1.000645 0.038811 0
0.961919 0.008628 0
0.933395 -0.007821 0
0.903316 -0.006368 0
0.881354 0.002116 0
0.869166 0.002983 0
0.865852 -0.001522 0
0.870843 -0.006836 0
0.882319 -0.009223 0
0.892460 -0.008252 0
0.899222 -0.006517 0
0.904672 -0.005426 0
0.909839 -0.004818 0
0.914619 -0.004342 0
0.918861 -0.003867 0
0.922638 -0.003430 0
0.926095 -0.003120 0
0.929285 -0.002924 0
0.932210 -0.002734 0
0.934941 -0.002503 0
0.937606 -0.002318 0
0.940245 -0.002247 0
0.942762 -0.002223 0
0.945030 -0.002106 0
0.947056 -0.001852 0
0.949016 -0.001611 0
0.951041 -0.001551 0
0.953052 -0.001647 0
0.954810 -0.001659 0
0.956163 -0.001388 0
0.957165 -0.000921 0
0.958053 -0.000548 0
0.959086 -0.000501 0
0.960352 -0.000790 0
0.961666 -0.001142 0
0.962802 -0.001226 0
0.963731 -0.001045 0
0.964495 -0.000816 0
0.965115 -0.000620 0
0.965611 -0.000476 0
0.966009 -0.000361 0
0.966330 -0.000345 0
0.966617 -0.000418 0
0.966881 -0.000446 0
1.000000 -0.000147 0
1.000732 -0.000590 0
1.001990 -0.001321 0
1.003748 -0.002303 0
1.005968 -0.003461 0
1.008795 -0.004764 0
1.012274 -0.006250 0
1.016479 -0.007959 0
1.021518 -0.009959 0
1.027541 -0.012346 0
1.034748 -0.015252 0
1.043403 -0.018845 0
1.053858 -0.023333 0
1.066582 -0.028965 0
1.082192 -0.036019 0
1.101487 -0.044770 0
1.125467 -0.055417 0
1.155340 -0.067949 0
1.192490 -0.081869 0
1.238257 -0.095792 0
1.293453 -0.106787 0
1.356164 -0.110869 0
1.425017 -0.101118 0
1.480096 -0.073462 0
1.513610 -0.034694 0
1.524145 0.006399 0
1.511555 0.044983 0
1.477646 0.080178 0
1.427532 0.112153 0
1.363550 0.139584 0
1.287324 0.161967 0
1.198971 0.179028 0
1.096122 0.198049 0
1.021431 0.210727 0
0.931537 0.199019 0
0.795023 0.168121 0
0.692899 0.124158 0
0.626635 0.066625 0
0.514136 -0.035459 0
0.503509 -0.232885 0
0.637014 -0.468350 0
0.893448 -0.628039 0
1.192373 -0.671580 0
1.451708 -0.587931 0
1.716381 -0.384674 0
1.911642 -0.137769 0
2.022710 0.056336 0
2.035369 0.185221 0
1.965621 0.287711 0
1.844636 0.339541 0
1.699499 0.323874 0
1.549974 0.281656 0
1.410981 0.238566 0
1.293719 0.202830 0
1.201865 0.173816 0
1.137875 0.143356 0
1.089564 0.114158 0
1.053974 0.089798 0
1.035592 0.067251 0
1.020353 0.058605 0
1.000228 0.052042 0
0.991454 0.034151 0
0.988201 0.015504 0
0.982176 -0.001675 0
0.969422 -0.016465 0
0.951519 -0.021615 0
0.938853 -0.016902 0
0.934780 -0.012211 0
0.936631 -0.010616 0
0.941628 -0.009946 0
0.946807 -0.009022 0
0.951319 -0.008019 0
0.955266 -0.007233 0
0.958824 -0.006648 0
0.962097 -0.006115 0
0.965220 -0.005656 0
0.968326 -0.005397 0
0.971435 -0.005305 0
0.974426 -0.005157 0
0.977169 -0.004786 0
0.979695 -0.004295 0
0.982169 -0.003988 0
0.984692 -0.003987 0
0.987141 -0.004038 0
0.989258 -0.003771 0
0.990897 -0.003113 0
0.992218 -0.002358 0
0.993550 -0.001892 0
0.995118 -0.001923 0
0.996882 -0.002302 0
0.998564 -0.002583 0
0.999844 -0.002453 0
1.000744 -0.002067 0
1.001469 -0.001696 0
1.002107 -0.001387 0
1.002661 -0.001119 0
1.003141 -0.000897 0
1.003534 -0.000723 0
1.003870 -0.000611 0
1.004066 -0.000554 0
1.004145 -0.000529 0
1.000000 -0.000450 0
1.000532 -0.001463 0
1.001568 -0.002714 0
1.003104 -0.004200 0
1.005133 -0.005894 0
1.007702 -0.007795 0
1.010854 -0.009939 0
1.014650 -0.012389 0
1.019174 -0.015246 0
1.024541 -0.018648 0
1.030915 -0.022783 0
1.038512 -0.027893 0
1.047628 -0.034286 0
1.058672 -0.042347 0
1.072210 -0.052535 0
1.089050 -0.065351 0
1.110277 -0.081271 0
1.137389 -0.100607 0
1.172453 -0.123152 0
1.218369 -0.147536 0
1.278511 -0.169054 0
1.351678 -0.183516 0
1.447762 -0.170402 0
1.519417 -0.122196 0
1.559783 -0.059688 0
1.572294 0.006108 0
1.560344 0.069720 0
1.524548 0.125019 0
1.468389 0.171141 0
1.397951 0.211000 0
1.315956 0.246208 0
1.228973 0.278144 0
1.139907 0.280021 0
1.028940 0.275806 0
0.861028 0.323353 0
0.744225 0.317413 0
0.740513 0.217725 0
0.548082 0.183790 0
0.448022 0.060335 0
0.519701 -0.271300 0
0.631319 -0.633955 0
0.762481 -0.893046 0
0.954369 -0.919479 0
1.150461 -0.796571 0
1.310203 -0.607908 0
1.483435 -0.346826 0
1.655995 -0.072247 0
1.751093 0.174512 0
1.751331 0.355450 0
1.698967 0.450992 0
1.608583 0.476573 0
1.500258 0.457775 0
1.392066 0.402570 0
1.292163 0.324264 0
1.202552 0.248238 0
1.125782 0.195176 0
1.061513 0.152159 0
1.016726 0.092783 0
0.978247 0.042250 0
0.955352 0.027543 0
0.957808 0.022532 0
0.968611 0.014144 0
0.975070 0.012261 0
0.972766 0.017257 0
0.961614 0.023821 0
0.944618 0.021346 0
0.932633 0.008486 0
0.929109 -0.004294 0
0.932464 -0.012273 0
0.940472 -0.014994 0
0.946531 -0.014033 0
0.950743 -0.012326 0
0.954164 -0.010934 0
0.957362 -0.009951 0
0.960587 -0.009321 0
0.963943 -0.008963 0
0.967383 -0.008718 0
0.970732 -0.008417 0
0.973856 -0.007982 0
0.976795 -0.007493 0
0.979704 -0.007106 0
0.982641 -0.006850 0
0.985420 -0.006583 0
0.987766 -0.006118 0
0.989614 -0.005404 0
0.991203 -0.004621 0
0.992855 -0.004042 0
0.994743 -0.003822 0
0.996756 -0.003880 0
0.998573 -0.003949 0
0.999868 -0.003753 0
1.000783 -0.003323 0
1.001576 -0.002852 0
1.002298 -0.002408 0
1.002928 -0.002009 0
1.003474 -0.001656 0
1.003938 -0.001350 0
1.004318 -0.001091 0
1.004613 -0.000877 0
1.004801 -0.000695 0
1.004870 -0.000603 0
1.000000 -0.000678 0
1.000383 -0.002157 0
1.001212 -0.003892 0
1.002534 -0.005868 0
1.004313 -0.008059 0
1.006549 -0.010484 0
1.009277 -0.013197 0
1.012539 -0.016278 0
1.016387 -0.019849 0
1.020901 -0.024087 0
1.026196 -0.029222 0
1.032425 -0.035558 0
1.039796 -0.043494 0
1.048616 -0.053548 0
1.059328 -0.066399 0
1.072715 -0.082838 0
1.089820 -0.103758 0
1.112288 -0.130128 0
1.142537 -0.162854 0
1.186247 -0.201855 0
1.249342 -0.240101 0
1.334679 -0.280125 0
1.493016 -0.268863 0
1.587108 -0.185490 0
1.627634 -0.087579 0
1.636745 0.005830 0
1.624399 0.092722 0
1.591051 0.172126 0
1.529901 0.238743 0
1.444792 0.292010 0
1.347151 0.330939 0
1.241191 0.355071 0
1.120000 0.398077 0
0.978573 0.489601 0
0.946128 0.483730 0
0.974626 0.288631 0
0.732198 0.320296 0
0.411749 0.359112 0
0.493347 -0.007081 0
0.662430 -0.416185 0
0.768789 -0.711133 0
0.797534 -0.951092 0
0.845908 -1.059562 0
1.001855 -0.943768 0
1.108406 -0.717649 0
1.175572 -0.483562 0
1.275290 -0.211324 0
1.376276 0.089884 0
1.441439 0.339836 0
1.459525 0.482289 0
1.435668 0.522582 0
1.388882 0.498172 0
1.332577 0.446661 0
1.270156 0.392345 0
1.204304 0.340197 0
1.143587 0.284395 0
1.097867 0.223214 0
1.055676 0.173064 0
0.999893 0.128626 0
0.954500 0.079045 0
0.937487 0.038784 0
0.942650 0.016889 0
0.953637 0.011349 0
0.963075 0.011781 0
0.972879 0.011683 0
0.983415 0.007367 0
0.987868 -0.001392 0
0.984655 -0.012042 0
0.975372 -0.021979 0
0.962646 -0.024013 0
0.954967 -0.019293 0
0.952365 -0.015652 0
0.952964 -0.013853 0
0.955331 -0.013070 0
0.958642 -0.012696 0
0.962410 -0.012452 0
0.966291 -0.012186 0
0.970036 -0.011778 0
0.973545 -0.011221 0
0.976906 -0.010635 0
0.980225 -0.010141 0
0.983397 -0.009705 0
0.986172 -0.009113 0
0.988413 -0.008233 0
0.990271 -0.007209 0
0.992069 -0.006355 0
0.994055 -0.005898 0
0.996187 -0.005794 0
0.998150 -0.005754 0
0.999652 -0.005415 0
1.000705 -0.004794 0
1.001559 -0.004163 0
1.002294 -0.003583 0
1.002936 -0.003049 0
1.003492 -0.002565 0
1.003966 -0.002130 0
1.004363 -0.001742 0
1.004681 -0.001399 0
1.004920 -0.001096 0
1.005072 -0.000812 0
1.005127 -0.000665 0
1.000000 -0.000832 0
1.000166 -0.002674 0
1.000776 -0.004864 0
1.001940 -0.007299 0
1.003466 -0.009909 0
1.005318 -0.012758 0
1.007548 -0.015927 0
1.010186 -0.019498 0
1.013241 -0.023607 0
1.016748 -0.028456 0
1.020775 -0.034306 0
1.025393 -0.041493 0
1.030689 -0.050477 0
1.036820 -0.061878 0
1.043914 -0.076635 0
1.052805 -0.095844 0
1.064187 -0.120846 0
1.079637 -0.153326 0
1.099652 -0.197114 0
1.136988 -0.254345 0
1.190243 -0.317490 0
1.289225 -0.427195 0
1.581918 -0.422836 0
1.664033 -0.256821 0
1.673924 -0.109332 0
1.670842 0.009336 0
1.665490 0.115406 0
1.657427 0.219511 0
1.618817 0.317394 0
1.539745 0.393744 0
1.427531 0.449803 0
1.290406 0.505289 0
1.149427 0.542634 0
1.095967 0.449674 0
1.061616 0.327296 0
0.809256 0.531339 0
0.384922 0.780598 0
0.374219 0.422638 0
0.540545 -0.190349 0
0.628750 -0.546745 0
0.688288 -0.769061 0
0.736267 -0.970166 0
0.765381 -1.123802 0
0.823897 -1.059072 0
0.944543 -0.781627 0
1.016828 -0.513712 0
1.045051 -0.272953 0
1.083809 0.008362 0
1.141542 0.272201 0
1.194775 0.456763 0
1.225013 0.547215 0
1.220846 0.560866 0
1.193824 0.521296 0
1.159447 0.452536 0
1.128700 0.374807 0
1.103956 0.301613 0
1.081121 0.240070 0
1.057017 0.190758 0
1.042856 0.143427 0
1.026417 0.089950 0
1.009846 0.034382 0
0.988154 -0.002006 0
0.974425 -0.008164 0
0.968856 -0.001985 0
0.968139 0.003483 0
0.969434 0.006358 0
0.969214 0.007246 0
0.965815 0.008201 0
0.958434 0.009736 0
0.948320 0.005411 0
0.943328 -0.003752 0
0.943201 -0.010323 0
0.945944 -0.013901 0
0.950156 -0.015629 0
0.955070 -0.016400 0
0.960144 -0.016613 0
0.964933 -0.016345 0
0.969288 -0.015671 0
0.973418 -0.014852 0
0.977489 -0.014174 0
0.981347 -0.013598 0
0.984642 -0.012798 0
0.987204 -0.011601 0
0.989287 -0.010218 0
0.991370 -0.009061 0
0.993715 -0.008405 0
0.996171 -0.008160 0
0.998295 -0.007918 0
0.999846 -0.007347 0
1.000918 -0.006505 0
1.001782 -0.005661 0
1.002529 -0.004914 0
1.003167 -0.004230 0
1.003713 -0.003607 0
1.004177 -0.003040 0
1.004567 -0.002528 0
1.004888 -0.002067 0
1.005140 -0.001649 0
1.005324 -0.001269 0
1.005438 -0.000903 0
1.005477 -0.000712 0
1.000000 -0.000843 0
1.000099 -0.002931 0
1.000272 -0.005665 0
1.001198 -0.008557 0
1.002476 -0.011436 0
1.003946 -0.014565 0
1.005668 -0.018064 0
1.007661 -0.021969 0
1.009863 -0.026409 0
1.012263 -0.031619 0
1.014924 -0.037866 0
1.017819 -0.045472 0
1.020864 -0.054919 0
1.024179 -0.066772 0
1.026854 -0.082384 0
1.030666 -0.103111 0
1.034974 -0.130590 0
1.042645 -0.165595 0
1.043319 -0.220207 0
1.073495 -0.292447 0
1.085042 -0.392341 0
1.232286 -0.671804 0
1.596098 -0.643676 0
1.511624 -0.277502 0
1.424874 -0.094395 0
1.406796 0.014256 0
1.420225 0.106131 0
1.484531 0.218793 0
1.540222 0.356418 0
1.552292 0.483291 0
1.502719 0.580274 0
1.394724 0.633170 0
1.277486 0.592512 0
1.152379 0.577408 0
0.827426 0.770436 0
0.415385 0.965323 0
0.447846 0.755330 0
0.710410 0.203486 0
0.680186 -0.261615 0
0.607587 -0.563931 0
0.599969 -0.818652 0
0.621095 -1.028188 0
0.646901 -1.147194 0
0.660918 -1.122931 0
0.730158 -0.910582 0
0.828484 -0.584072 0
0.875815 -0.278306 0
0.901040 -0.006608 0
0.939904 0.228869 0
0.998701 0.398818 0
1.052860 0.496511 0
1.081544 0.529360 0
1.092145 0.508060 0
1.095890 0.457469 0
1.097296 0.395688 0
1.091340 0.331974 0
1.073976 0.270153 0
1.050233 0.211329 0
1.027712 0.159225 0
1.005755 0.112056 0
0.977477 0.077047 0
0.936485 0.052310 0
0.898813 0.030648 0
0.874122 0.018068 0
0.861425 0.011106 0
0.858096 0.006292 0
0.861721 0.002227 0
0.870413 -0.001262 0
0.883732 -0.004483 0
0.900371 -0.008907 0
0.914093 -0.014174 0
0.925169 -0.018268 0
0.934799 -0.020808 0
0.943492 -0.022196 0
0.951189 -0.022684 0
0.957834 -0.022315 0
0.963712 -0.021330 0
0.969254 -0.020263 0
0.974573 -0.019422 0
0.979284 -0.018565 0
0.983030 -0.017295 0
0.985921 -0.015562 0
0.988451 -0.013759 0
0.991131 -0.012401 0
0.994067 -0.011637 0
0.996811 -0.011156 0
0.999021 -0.010480 0
1.000530 -0.009470 0
1.001559 -0.008378 0
1.002370 -0.007353 0
1.003082 -0.006407 0
1.003683 -0.005548 0
1.004189 -0.004768 0
1.004615 -0.004061 0
1.004970 -0.003420 0
1.005262 -0.002841 0
1.005496 -0.002316 0
1.005677 -0.001837 0
1.005804 -0.001396 0
1.005879 -0.000966 0
1.005899 -0.000741 0
1.000000 -0.000929 0
1.000028 -0.002944 0
1.000128 -0.005961 0
1.000437 -0.009501 0
1.001310 -0.012655 0
1.002399 -0.015949 0
1.003659 -0.019640 0
1.005078 -0.023691 0
1.006414 -0.028206 0
1.007614 -0.033515 0
1.008932 -0.039860 0
1.010154 -0.047431 0
1.010916 -0.056836 0
1.012165 -0.067867 0
1.009158 -0.083121 0
1.011171 -0.103964 0
1.003254 -0.132824 0
1.005959 -0.161671 0
0.989012 -0.227964 0
1.000514 -0.296068 0
0.964978 -0.476283 0
1.058695 -0.938253 0
0.776019 -0.616575 0
-0.001957 0.000000 0
-0.002924 0.000000 0
0.572178 0.018489 0
0.601701 0.037665 0
0.723578 0.099509 0
0.963449 0.249628 0
1.245579 0.431243 0
1.326994 0.607367 0
1.340028 0.730519 0
1.249567 0.784975 0
1.049648 0.899730 0
0.841600 1.064288 0
0.898508 0.910916 0
1.036084 0.485570 0
0.915501 0.190296 0
0.739785 -0.087528 0
0.652838 -0.466530 0
0.611208 -0.782571 0
0.581217 -1.017100 0
0.559111 -1.163627 0
0.571939 -1.142330 0
0.596244 -0.949194 0
0.634541 -0.659370 0
0.658521 -0.345510 0
0.679685 -0.055728 0
0.723314 0.174539 0
0.781830 0.343806 0
0.828361 0.464373 0
0.870967 0.521581 0
0.919357 0.506950 0
0.961707 0.447385 0
0.981389 0.379356 0
0.978751 0.324932 0
0.966706 0.281177 0
0.953691 0.237023 0
0.938351 0.187905 0
0.919039 0.140185 0
0.890945 0.103652 0
0.865435 0.076658 0
0.841663 0.054200 0
0.824985 0.035404 0
0.818051 0.019508 0
0.820254 0.006063 0
0.829522 -0.005070 0
0.843719 -0.013809 0
0.861139 -0.020223 0
0.880094 -0.024950 0
0.898068 -0.028550 0
0.914063 -0.031028 0
0.927794 -0.032223 0
0.939359 -0.032020 0
0.949132 -0.030742 0
0.957593 -0.029136 0
0.965112 -0.027765 0
0.971672 -0.026532 0
0.977112 -0.024883 0
0.981425 -0.022632 0
0.984999 -0.020236 0
0.988552 -0.018220 0
0.992173 -0.016811 0
0.995506 -0.015835 0
0.998338 -0.014742 0
1.000361 -0.013360 0
1.001706 -0.011880 0
1.002660 -0.010457 0
1.003427 -0.009188 0
1.004049 -0.008029 0
1.004563 -0.006975 0
1.004983 -0.006023 0
1.005328 -0.005163 0
1.005609 -0.004388 0
1.005838 -0.003689 0
1.006021 -0.003056 0
1.006163 -0.002483 0
1.006268 -0.001958 0
1.006337 -0.001473 0
1.006372 -0.000999 0
1.006371 -0.000751 0
1.000000 -0.000869 0
0.999770 -0.003056 0
0.999989 -0.006071 0
1.000067 -0.009737 0
1.000153 -0.013396 0
1.000790 -0.016912 0
1.001561 -0.020740 0
1.002602 -0.024721 0
1.003098 -0.028943 0
1.002865 -0.034135 0
1.003697 -0.040404 0
1.002072 -0.047453 0
1.003816 -0.056928 0
0.998120 -0.065012 0
0.999169 -0.081389 0
0.990225 -0.097206 0
0.985375 -0.125376 0
0.963447 -0.151352 0
0.960476 -0.214761 0
0.894641 -0.268413 0
0.883747 -0.450521 0
0.638771 -0.568449 0
0.000000 -0.000267 0
-0.664021 0.246780 0
-0.587041 0.000000 0
0.000000 0.000000 0
0.017308 -0.046455 0
0.028482 -0.142960 0
0.128279 -0.165587 0
0.794728 0.119743 0
0.861483 0.485821 0
0.993588 0.710594 0
1.066232 0.882888 0
1.044676 0.985373 0
1.070653 0.921574 0
1.149392 0.770836 0
0.972557 0.738335 0
0.737717 0.499782 0
0.701274 0.001045 0
0.689609 -0.435355 0
0.645150 -0.747033 0
0.596393 -0.976093 0
0.544082 -1.137918 0
0.504946 -1.160065 0
0.505227 -0.973185 0
0.555730 -0.646349 0
0.603284 -0.323451 0
0.644185 -0.071403 0
0.667193 0.126723 0
0.678238 0.293771 0
0.705064 0.407373 0
0.762843 0.438364 0
0.822454 0.417321 0
0.853968 0.395438 0
0.857719 0.378643 0
0.854894 0.346657 0
0.858120 0.295213 0
0.860653 0.239684 0
0.851762 0.193878 0
0.828349 0.159463 0
0.799507 0.130651 0
0.776892 0.101592 0
0.764661 0.071099 0
0.763598 0.041681 0
0.772181 0.015837 0
0.787739 -0.005178 0
0.807422 -0.021238 0
0.829017 -0.032879 0
0.851231 -0.040858 0
0.873341 -0.045836 0
0.894335 -0.048143 0
0.913238 -0.047994 0
0.929317 -0.046105 0
0.942617 -0.043534 0
0.953523 -0.040918 0
0.962414 -0.038296 0
0.969753 -0.035410 0
0.975943 -0.032263 0
0.981416 -0.029175 0
0.986407 -0.026452 0
0.990771 -0.024423 0
0.994961 -0.022737 0
0.998336 -0.020714 0
1.000803 -0.018567 0
1.002431 -0.016493 0
1.003558 -0.014524 0
1.004369 -0.012780 0
1.005015 -0.011192 0
1.005504 -0.009769 0
1.005872 -0.008489 0
1.006152 -0.007342 0
1.006364 -0.006315 0
1.006525 -0.005395 0
1.006647 -0.004572 0
1.006739 -0.003833 0
1.006807 -0.003167 0
1.006855 -0.002564 0
1.006883 -0.002012 0
1.006894 -0.001501 0
1.006888 -0.001001 0
1.006867 -0.000739 0
1.000000 -0.000697 0
0.999847 -0.002929 0
0.999753 -0.006256 0
0.999856 -0.009663 0
0.999516 -0.013375 0
0.999667 -0.017354 0
0.999760 -0.021449 0
0.999949 -0.025225 0
0.999540 -0.028467 0
0.999488 -0.034112 0
0.998486 -0.039064 0
0.997113 -0.047547 0
0.995054 -0.052882 0
0.990676 -0.063218 0
0.988070 -0.075223 0
0.974137 -0.090167 0
0.969845 -0.106043 0
0.938035 -0.136769 0
0.924640 -0.159157 0
0.840737 -0.219337 0
0.792285 -0.220409 0
0.478819 -0.131217 0
0.319772 -0.054516 0
0.000000 0.000000 0
0.000000 0.000000 0
0.000000 0.000000 0
0.000000 0.000000 0
-0.054455 -0.019466 0
-0.138230 -0.516620 0
-0.049083 -0.301964 0
0.353056 0.408505 0
0.609912 0.525768 0
0.805668 0.733884 0
0.893042 0.895307 0
0.946151 0.959570 0
0.779398 1.009011 0
0.568356 0.897243 0
0.652558 0.461576 0
0.761441 -0.039422 0
0.804779 -0.410408 0
0.779375 -0.689356 0
0.699618 -0.916033 0
0.614496 -1.072182 0
0.528234 -1.103476 0
0.464002 -0.999979 0
0.451270 -0.757428 0
0.510843 -0.433966 0
0.582683 -0.119638 0
0.617473 0.140485 0
0.633042 0.305934 0
0.668718 0.379767 0
0.708497 0.404190 0
0.724910 0.415825 0
0.730552 0.412120 0
0.750381 0.378430 0
0.781296 0.324531 0