# vtk DataFile Version 2.0
generated by CFD-lab course output (written by Tobias Neckel) 
ASCII

DATASET STRUCTURED_GRID
DIMENSIONS  101 21 1 
POINTS 2121 float

0.000000 0.000000 0
0.100000 0.000000 0
0.200000 0.000000 0
0.300000 0.000000 0
0.400000 0.000000 0
0.500000 0.000000 0
0.600000 0.000000 0
0.700000 0.000000 0
0.800000 0.000000 0
0.900000 0.000000 0
1.000000 0.000000 0
1.100000 0.000000 0
1.200000 0.000000 0
1.300000 0.000000 0
1.400000 0.000000 0
1.500000 0.000000 0
1.600000 0.000000 0
1.700000 0.000000 0
1.800000 0.000000 0
1.900000 0.000000 0
2.000000 0.000000 0
2.100000 0.000000 0
2.200000 0.000000 0
2.300000 0.000000 0
2.400000 0.000000 0
2.500000 0.000000 0
2.600000 0.000000 0
2.700000 0.000000 0
2.800000 0.000000 0
2.900000 0.000000 0
3.000000 0.000000 0
3.100000 0.000000 0
3.200000 0.000000 0
3.300000 0.000000 0
3.400000 0.000000 0
3.500000 0.000000 0
3.600000 0.000000 0
3.700000 0.000000 0
3.800000 0.000000 0
3.900000 0.000000 0
4.000000 0.000000 0
4.100000 0.000000 0
4.200000 0.000000 0
4.300000 0.000000 0
4.400000 0.000000 0
4.500000 0.000000 0
4.600000 0.000000 0
4.700000 0.000000 0
4.800000 0.000000 0
4.900000 0.000000 0
5.000000 0.000000 0
5.100000 0.000000 0
5.200000 0.000000 0
5.300000 0.000000 0
5.400000 0.000000 0
5.500000 0.000000 0
5.600000 0.000000 0
5.700000 0.000000 0
5.800000 0.000000 0
5.900000 0.000000 0
6.000000 0.000000 0
6.100000 0.000000 0
6.200000 0.000000 0
6.300000 0.000000 0
6.400000 0.000000 0
6.500000 0.000000 0
6.600000 0.000000 0
6.700000 0.000000 0
6.800000 0.000000 0
6.900000 0.000000 0
7.000000 0.000000 0
7.100000 0.000000 0
7.200000 0.000000 0
7.300000 0.000000 0
7.400000 0.000000 0
7.500000 0.000000 0
7.600000 0.000000 0
7.700000 0.000000 0
7.800000 0.000000 0
7.900000 0.000000 0
8.000000 0.000000 0
8.100000 0.000000 0
8.200000 0.000000 0
8.300000 0.000000 0
8.400000 0.000000 0
8.500000 0.000000 0
8.600000 0.000000 0
8.700000 0.000000 0
8.800000 0.000000 0
8.900000 0.000000 0
9.000000 0.000000 0
9.100000 0.000000 0
9.200000 0.000000 0
9.300000 0.000000 0
9.400000 0.000000 0
9.500000 0.000000 0
9.600000 0.000000 0
9.700000 0.000000 0
9.800000 0.000000 0
9.900000 0.000000 0
10.000000 0.000000 0
0.000000 0.100000 0
0.100000 0.100000 0
0.200000 0.100000 0
0.300000 0.100000 0
0.400000 0.100000 0
0.500000 0.100000 0
0.600000 0.100000 0
0.700000 0.100000 0
0.800000 0.100000 0
0.900000 0.100000 0
1.000000 0.100000 0
1.100000 0.100000 0
1.200000 0.100000 0
1.300000 0.100000 0
1.400000 0.100000 0
1.500000 0.100000 0
1.600000 0.100000 0
1.700000 0.100000 0
1.800000 0.100000 0
1.900000 0.100000 0
2.000000 0.100000 0
2.100000 0.100000 0
2.200000 0.100000 0
2.300000 0.100000 0
2.400000 0.100000 0
2.500000 0.100000 0
2.600000 0.100000 0
2.700000 0.100000 0
2.800000 0.100000 0
2.900000 0.100000 0
3.000000 0.100000 0
3.100000 0.100000 0
3.200000 0.100000 0
3.300000 0.100000 0
3.400000 0.100000 0
3.500000 0.100000 0
3.600000 0.100000 0
3.700000 0.100000 0
3.800000 0.100000 0
3.900000 0.100000 0
4.000000 0.100000 0
4.100000 0.100000 0
4.200000 0.100000 0
4.300000 0.100000 0
4.400000 0.100000 0
4.500000 0.100000 0
4.600000 0.100000 0
4.700000 0.100000 0
4.800000 0.100000 0
4.900000 0.100000 0
5.000000 0.100000 0
5.100000 0.100000 0
5.200000 0.100000 0
5.300000 0.100000 0
5.400000 0.100000 0
5.500000 0.100000 0
5.600000 0.100000 0
5.700000 0.100000 0
5.800000 0.100000 0
5.900000 0.100000 0
6.000000 0.100000 0
6.100000 0.100000 0
6.200000 0.100000 0
6.300000 0.100000 0
6.400000 0.100000 0
6.500000 0.100000 0
6.600000 0.100000 0
6.700000 0.100000 0
6.800000 0.100000 0
6.900000 0.100000 0
7.000000 0.100000 0
7.100000 0.100000 0
7.200000 0.100000 0
7.300000 0.100000 0
7.400000 0.100000 0
7.500000 0.100000 0
7.600000 0.100000 0
7.700000 0.100000 0
7.800000 0.100000 0
7.900000 0.100000 0
8.000000 0.100000 0
8.100000 0.100000 0
8.200000 0.100000 0
8.300000 0.100000 0
8.400000 0.100000 0
8.500000 0.100000 0
8.600000 0.100000 0
8.700000 0.100000 0
8.800000 0.100000 0
8.900000 0.100000 0
9.000000 0.100000 0
9.100000 0.100000 0
9.200000 0.100000 0
9.300000 0.100000 0
9.400000 0.100000 0
9.500000 0.100000 0
9.600000 0.100000 0
9.700000 0.100000 0
9.800000 0.100000 0
9.900000 0.100000 0
10.000000 0.100000 0
0.000000 0.200000 0
0.100000 0.200000 0
0.200000 0.200000 0
0.300000 0.200000 0
0.400000 0.200000 0
0.500000 0.200000 0
0.600000 0.200000 0
0.700000 0.200000 0
0.800000 0.200000 0
0.900000 0.200000 0
1.000000 0.200000 0
1.100000 0.200000 0
1.200000 0.200000 0
1.300000 0.200000 0
1.400000 0.200000 0
1.500000 0.200000 0
1.600000 0.200000 0
1.700000 0.200000 0
1.800000 0.200000 0
1.900000 0.200000 0
2.000000 0.200000 0
2.100000 0.200000 0
2.200000 0.200000 0
2.300000 0.200000 0
2.400000 0.200000 0
2.500000 0.200000 0
2.600000 0.200000 0
2.700000 0.200000 0
2.800000 0.200000 0
2.900000 0.200000 0
3.000000 0.200000 0
3.100000 0.200000 0
3.200000 0.200000 0
3.300000 0.200000 0
3.400000 0.200000 0
3.500000 0.200000 0
3.600000 0.200000 0
3.700000 0.200000 0
3.800000 0.200000 0
3.900000 0.200000 0
4.000000 0.200000 0
4.100000 0.200000 0
4.200000 0.200000 0
4.300000 0.200000 0
4.400000 0.200000 0
4.500000 0.200000 0
4.600000 0.200000 0
4.700000 0.200000 0
4.800000 0.200000 0
4.900000 0.200000 0
5.000000 0.200000 0
5.100000 0.200000 0
5.200000 0.200000 0
5.300000 0.200000 0
5.400000 0.200000 0
5.500000 0.200000 0
5.600000 0.200000 0
5.700000 0.200000 0
5.800000 0.200000 0
5.900000 0.200000 0
6.000000 0.200000 0
6.100000 0.200000 0
6.200000 0.200000 0
6.300000 0.200000 0
6.400000 0.200000 0
6.500000 0.200000 0
6.600000 0.200000 0
6.700000 0.200000 0
6.800000 0.200000 0
6.900000 0.200000 0
7.000000 0.200000 0
7.100000 0.200000 0
7.200000 0.200000 0
7.300000 0.200000 0
7.400000 0.200000 0
7.500000 0.200000 0
7.600000 0.200000 0
7.700000 0.200000 0
7.800000 0.200000 0
7.900000 0.200000 0
8.000000 0.200000 0
8.100000 0.200000 0
8.200000 0.200000 0
8.300000 0.200000 0
8.400000 0.200000 0
8.500000 0.200000 0
8.600000 0.200000 0
8.700000 0.200000 0
8.800000 0.200000 0
8.900000 0.200000 0
9.000000 0.200000 0
9.100000 0.200000 0
9.200000 0.200000 0
9.300000 0.200000 0
9.400000 0.200000 0
9.500000 0.200000 0
9.600000 0.200000 0
9.700000 0.200000 0
9.800000 0.200000 0
9.900000 0.200000 0
10.000000 0.200000 0
0.000000 0.300000 0
0.100000 0.300000 0
0.200000 0.300000 0
0.300000 0.300000 0
0.400000 0.300000 0
0.500000 0.300000 0
0.600000 0.300000 0
0.700000 0.300000 0
0.800000 0.300000 0
0.900000 0.300000 0
1.000000 0.300000 0
1.100000 0.300000 0
1.200000 0.300000 0
1.300000 0.300000 0
1.400000 0.300000 0
1.500000 0.300000 0
1.600000 0.300000 0
1.700000 0.300000 0
1.800000 0.300000 0
1.900000 0.300000 0
2.000000 0.300000 0
2.100000 0.300000 0
2.200000 0.300000 0
2.300000 0.300000 0
2.400000 0.300000 0
2.500000 0.300000 0
2.600000 0.300000 0
2.700000 0.300000 0
2.800000 0.300000 0
2.900000 0.300000 0
3.000000 0.300000 0
3.100000 0.300000 0
3.200000 0.300000 0
3.300000 0.300000 0
3.400000 0.300000 0
3.500000 0.300000 0
3.600000 0.300000 0
3.700000 0.300000 0
3.800000 0.300000 0
3.900000 0.300000 0
4.000000 0.300000 0
4.100000 0.300000 0
4.200000 0.300000 0
4.300000 0.300000 0
4.400000 0.300000 0
4.500000 0.300000 0
4.600000 0.300000 0
4.700000 0.300000 0
4.800000 0.300000 0
4.900000 0.300000 0
5.000000 0.300000 0
5.100000 0.300000 0
5.200000 0.300000 0
5.300000 0.300000 0
5.400000 0.300000 0
5.500000 0.300000 0
5.600000 0.300000 0
5.700000 0.300000 0
5.800000 0.300000 0
5.900000 0.300000 0
6.000000 0.300000 0
6.100000 0.300000 0
6.200000 0.300000 0
6.300000 0.300000 0
6.400000 0.300000 0
6.500000 0.300000 0
6.600000 0.300000 0
6.700000 0.300000 0
6.800000 0.300000 0
6.900000 0.300000 0
7.000000 0.300000 0
7.100000 0.300000 0
7.200000 0.300000 0
7.300000 0.300000 0
7.400000 0.300000 0
7.500000 0.300000 0
7.600000 0.300000 0
7.700000 0.300000 0
7.800000 0.300000 0
7.900000 0.300000 0
8.000000 0.300000 0
8.100000 0.300000 0
8.200000 0.300000 0
8.300000 0.300000 0
8.400000 0.300000 0
8.500000 0.300000 0
8.600000 0.300000 0
8.700000 0.300000 0
8.800000 0.300000 0
8.900000 0.300000 0
9.000000 0.300000 0
9.100000 0.300000 0
9.200000 0.300000 0
9.300000 0.300000 0
9.400000 0.300000 0
9.500000 0.300000 0
9.600000 0.300000 0
9.700000 0.300000 0
9.800000 0.300000 0
9.900000 0.300000 0
10.000000 0.300000 0
0.000000 0.400000 0
0.100000 0.400000 0
0.200000 0.400000 0
0.300000 0.400000 0
0.400000 0.400000 0
0.500000 0.400000 0
0.600000 0.400000 0
0.700000 0.400000 0
0.800000 0.400000 0
0.900000 0.400000 0
1.000000 0.400000 0
1.100000 0.400000 0
1.200000 0.400000 0
1.300000 0.400000 0
1.400000 0.400000 0
1.500000 0.400000 0
1.600000 0.400000 0
1.700000 0.400000 0
1.800000 0.400000 0
1.900000 0.400000 0
2.000000 0.400000 0
2.100000 0.400000 0
2.200000 0.400000 0
2.300000 0.400000 0
2.400000 0.400000 0
2.500000 0.400000 0
2.600000 0.400000 0
2.700000 0.400000 0
2.800000 0.400000 0
2.900000 0.400000 0
3.000000 0.400000 0
3.100000 0.400000 0
3.200000 0.400000 0
3.300000 0.400000 0
3.400000 0.400000 0
3.500000 0.400000 0
3.600000 0.400000 0
3.700000 0.400000 0
3.800000 0.400000 0
3.900000 0.400000 0
4.000000 0.400000 0
4.100000 0.400000 0
4.200000 0.400000 0
4.300000 0.400000 0
4.400000 0.400000 0
4.500000 0.400000 0
4.600000 0.400000 0
4.700000 0.400000 0
4.800000 0.400000 0
4.900000 0.400000 0
5.000000 0.400000 0
5.100000 0.400000 0
5.200000 0.400000 0
5.300000 0.400000 0
5.400000 0.400000 0
5.500000 0.400000 0
5.600000 0.400000 0
5.700000 0.400000 0
5.800000 0.400000 0
5.900000 0.400000 0
6.000000 0.400000 0
6.100000 0.400000 0
6.200000 0.400000 0
6.300000 0.400000 0
6.400000 0.400000 0
6.500000 0.400000 0
6.600000 0.400000 0
6.700000 0.400000 0
6.800000 0.400000 0
6.900000 0.400000 0
7.000000 0.400000 0
7.100000 0.400000 0
7.200000 0.400000 0
7.300000 0.400000 0
7.400000 0.400000 0
7.500000 0.400000 0
7.600000 0.400000 0
7.700000 0.400000 0
7.800000 0.400000 0
7.900000 0.400000 0
8.000000 0.400000 0
8.100000 0.400000 0
8.200000 0.400000 0
8.300000 0.400000 0
8.400000 0.400000 0
8.500000 0.400000 0
8.600000 0.400000 0
[...]
POINT_DATA 2121 

VECTORS velocity float
0.500000 0.000000 0
0.000006 0.000000 0
0.000008 0.000000 0
-0.000021 0.000000 0
-0.000082 0.000000 0
-0.000075 0.000000 0
-0.000119 0.000000 0
-0.000138 0.000000 0
-0.000133 0.000000 0
-0.000104 0.000000 0
-0.000058 0.000000 0
0.000000 0.000000 0
0.000069 0.000000 0
0.000147 0.000000 0
0.000238 0.000000 0
0.000345 0.000000 0
0.000471 0.000000 0
0.000625 0.000000 0
0.000817 0.000000 0
0.001059 0.000000 0
0.001364 0.000000 0
0.001731 0.000000 0
0.002133 0.000000 0
0.002552 0.000000 0
0.002990 0.000000 0
0.003414 0.000000 0
0.003752 0.000000 0
0.003937 0.000000 0
0.003916 0.000000 0
0.003639 0.000000 0
0.003109 0.000000 0
0.002361 0.000000 0
0.001537 0.000000 0
0.000791 0.000000 0
0.000231 0.000000 0
-0.000126 0.000000 0
-0.000502 0.000000 0
-0.000782 0.000000 0
-0.000877 0.000000 0
-0.000887 0.000000 0
-0.000877 0.000000 0
-0.000857 0.000000 0
-0.000829 0.000000 0
-0.000796 0.000000 0
-0.000761 0.000000 0
-0.000724 0.000000 0
-0.000687 0.000000 0
-0.000651 0.000000 0
-0.000615 0.000000 0
-0.000580 0.000000 0
-0.000546 0.000000 0
-0.000517 0.000000 0
-0.000489 0.000000 0
-0.000463 0.000000 0
-0.000441 0.000000 0
-0.000421 0.000000 0
-0.000402 0.000000 0
-0.000384 0.000000 0
-0.000369 0.000000 0
-0.000356 0.000000 0
-0.000344 0.000000 0
-0.000334 0.000000 0
-0.000325 0.000000 0
-0.000317 0.000000 0
-0.000311 0.000000 0
-0.000305 0.000000 0
-0.000299 0.000000 0
-0.000297 0.000000 0
-0.000293 0.000000 0
-0.000288 0.000000 0
-0.000284 0.000000 0
-0.000281 0.000000 0
-0.000278 0.000000 0
-0.000277 0.000000 0
-0.000275 0.000000 0
-0.000274 0.000000 0
-0.000272 0.000000 0
-0.000271 0.000000 0
-0.000270 0.000000 0
-0.000270 0.000000 0
-0.000269 0.000000 0
-0.000269 0.000000 0
-0.000268 0.000000 0
-0.000268 0.000000 0
-0.000267 0.000000 0
-0.000267 0.000000 0
-0.000266 0.000000 0
-0.000266 0.000000 0
-0.000266 0.000000 0
-0.000266 0.000000 0
-0.000266 0.000000 0
-0.000265 0.000000 0
-0.000265 0.000000 0
-0.000265 0.000000 0
-0.000265 0.000000 0
-0.000264 0.000000 0
-0.000265 0.000000 0
-0.000263 0.000000 0
-0.000264 0.000000 0
-0.000262 0.000000 0
-0.000260 0.000000 0
1.000000 0.000302 0
1.000077 0.000623 0
1.000393 0.000459 0
1.001103 -0.000168 0
1.002400 -0.001068 0
1.004390 -0.001898 0
1.007102 -0.002747 0
1.010576 -0.003705 0
1.014853 -0.004700 0
1.020030 -0.005792 0
1.026284 -0.007078 0
1.033884 -0.008667 0
1.043197 -0.010672 0
1.054693 -0.013205 0
1.068961 -0.016378 0
1.086712 -0.020288 0
1.108772 -0.024966 0
1.136008 -0.030295 0
1.169146 -0.035862 0
1.208415 -0.040788 0
1.252957 -0.043551 0
1.299789 -0.042166 0
1.343571 -0.034702 0
1.375697 -0.021053 0
1.389885 -0.003642 0
1.383972 0.014208 0
1.359698 0.029694 0
1.321084 0.041151 0
1.273111 0.047967 0
1.220712 0.050224 0
1.168435 0.048387 0
1.120346 0.043304 0
1.079358 0.036240 0
1.046640 0.028493 0
1.022085 0.020851 0
1.003967 0.016386 0
0.991189 0.012173 0
0.983092 0.006696 0
0.978280 0.003647 0
0.975664 0.001892 0
0.974513 0.000709 0
0.974355 -0.000123 0
0.974876 -0.000688 0
0.975854 -0.001057 0
0.977121 -0.001284 0
0.978549 -0.001407 0
0.980046 -0.001449 0
0.981541 -0.001436 0
0.982991 -0.001387 0
0.984358 -0.001299 0
0.985634 -0.001197 0
0.986799 -0.001101 0
0.987854 -0.000999 0
0.988807 -0.000895 0
0.989663 -0.000805 0
0.990423 -0.000722 0
0.991094 -0.000635 0
0.991683 -0.000553 0
0.992197 -0.000480 0
0.992647 -0.000419 0
0.993038 -0.000366 0
0.993377 -0.000316 0
0.993672 -0.000273 0
0.993928 -0.000237 0
0.994148 -0.000206 0
0.994339 -0.000176 0
0.994494 -0.000143 0
0.994646 -0.000131 0
0.994776 -0.000129 0
0.994886 -0.000110 0
0.994980 -0.000090 0
0.995059 -0.000074 0
0.995126 -0.000061 0
0.995183 -0.000051 0
0.995231 -0.000044 0
0.995272 -0.000037 0
0.995307 -0.000031 0
0.995337 -0.000027 0
0.995362 -0.000022 0
0.995384 -0.000019 0
0.995402 -0.000016 0
0.995418 -0.000015 0
0.995431 -0.000013 0
0.995443 -0.000010 0
0.995452 -0.000008 0
0.995461 -0.000007 0
0.995468 -0.000006 0
0.995475 -0.000006 0
0.995482 -0.000006 0
0.995489 -0.000007 0
0.995497 -0.000008 0
0.995506 -0.000010 0
0.995517 -0.000012 0
0.995531 -0.000017 0
0.995550 -0.000024 0
0.995577 -0.000033 0
0.995616 -0.000060 0
0.995677 -0.000083 0
0.995769 -0.000216 0
0.995930 -0.000437 0
0.996162 -0.000524 0
1.000000 -0.000101 0
1.000661 -0.000429 0
1.001832 -0.001048 0
1.003437 -0.002029 0
1.005393 -0.003307 0
1.007831 -0.004722 0
1.010893 -0.006207 0
1.014507 -0.007772 0
1.018719 -0.009474 0
1.023653 -0.011450 0
1.029509 -0.013873 0
1.036561 -0.016931 0
1.045167 -0.020827 0
1.055782 -0.025782 0
1.068988 -0.032036 0
1.085524 -0.039827 0
1.106329 -0.049311 0
1.132565 -0.060389 0
1.165504 -0.072421 0
1.206255 -0.083825 0
1.255340 -0.091387 0
1.310238 -0.090626 0
1.366232 -0.075919 0
1.407519 -0.046324 0
1.425241 -0.008285 0
1.417380 0.030177 0
1.387740 0.062879 0
1.342305 0.086578 0
1.287512 0.100365 0
1.228535 0.104669 0
1.170070 0.100360 0
1.117329 0.089071 0
1.074165 0.073700 0
1.041165 0.057267 0
1.018260 0.042668 0
1.001071 0.030891 0
0.991604 0.020871 0
0.985042 0.012906 0
0.980971 0.007424 0
0.978845 0.003763 0
0.978092 0.001306 0
0.978285 -0.000366 0
0.979128 -0.001501 0
0.980393 -0.002247 0
0.981906 -0.002698 0
0.983535 -0.002928 0
0.985186 -0.002994 0
0.986799 -0.002946 0
0.988328 -0.002819 0
0.989753 -0.002645 0
0.991068 -0.002442 0
0.992263 -0.002222 0
0.993335 -0.002009 0
0.994297 -0.001810 0
0.995151 -0.001617 0
0.995901 -0.001432 0
0.996560 -0.001260 0
0.997141 -0.001104 0
0.997649 -0.000965 0
0.998095 -0.000841 0
0.998480 -0.000731 0
0.998813 -0.000635 0
0.999104 -0.000551 0
0.999357 -0.000476 0
0.999575 -0.000412 0
0.999762 -0.000347 0
0.999923 -0.000308 0
1.000078 -0.000283 0
1.000199 -0.000241 0
1.000300 -0.000205 0
1.000389 -0.000173 0
1.000465 -0.000147 0
1.000531 -0.000125 0
1.000588 -0.000106 0
1.000637 -0.000090 0
1.000678 -0.000077 0
1.000713 -0.000065 0
1.000744 -0.000056 0
1.000770 -0.000047 0
1.000792 -0.000040 0
1.000811 -0.000035 0
1.000827 -0.000030 0
1.000841 -0.000026 0
1.000853 -0.000022 0
1.000864 -0.000019 0
1.000873 -0.000017 0
1.000882 -0.000015 0
1.000890 -0.000014 0
1.000898 -0.000015 0
1.000905 -0.000015 0
1.000913 -0.000017 0
1.000922 -0.000021 0
1.000932 -0.000026 0
1.000945 -0.000034 0
1.000962 -0.000047 0
1.000984 -0.000067 0
1.001016 -0.000101 0
1.001047 -0.000153 0
1.001109 -0.000254 0
1.001084 -0.000394 0
1.001024 -0.000463 0
1.000000 -0.000377 0
1.000432 -0.001232 0
1.001404 -0.002326 0
1.002814 -0.003738 0
1.004634 -0.005471 0
1.006919 -0.007407 0
1.009706 -0.009431 0
1.012975 -0.011539 0
1.016752 -0.013854 0
1.021127 -0.016590 0
1.026264 -0.019994 0
1.032392 -0.024333 0
1.039820 -0.029900 0
1.048961 -0.037033 0
1.060354 -0.046127 0
1.074721 -0.057635 0
1.093096 -0.072014 0
1.117041 -0.089475 0
1.148639 -0.109557 0
1.190388 -0.130629 0
1.246098 -0.147538 0
1.314587 -0.153063 0
1.398036 -0.131988 0
1.456173 -0.080065 0
1.479107 -0.013506 0
1.465281 0.051705 0
1.424895 0.104765 0
1.365383 0.141376 0
1.294591 0.161734 0
1.221553 0.167663 0
1.153595 0.159591 0
1.095520 0.139207 0
1.051451 0.112401 0
1.019638 0.084397 0
1.001857 0.060943 0
0.990008 0.043041 0
0.982473 0.028200 0
0.977895 0.017327 0
0.975446 0.009843 0
0.974528 0.004771 0
0.974748 0.001268 0
0.975780 -0.001160 0
0.977337 -0.002797 0
0.979183 -0.003836 0
0.981150 -0.004426 0
0.983122 -0.004688 0
0.985020 -0.004714 0
0.986812 -0.004578 0
0.988463 -0.004341 0
0.989962 -0.004040 0
0.991314 -0.003708 0
0.992534 -0.003369 0
0.993620 -0.003033 0
0.994575 -0.002711 0
0.995412 -0.002410 0
0.996146 -0.002131 0
0.996788 -0.001875 0
0.997350 -0.001642 0
0.997839 -0.001434 0
0.998263 -0.001250 0
0.998631 -0.001085 0
0.998950 -0.000941 0
0.999225 -0.000817 0
0.999464 -0.000708 0
0.999670 -0.000612 0
0.999843 -0.000525 0
1.000015 -0.000458 0
1.000145 -0.000407 0
1.000257 -0.000352 0
1.000354 -0.000300 0
1.000437 -0.000255 0
1.000509 -0.000217 0
1.000571 -0.000184 0
1.000623 -0.000157 0
1.000669 -0.000134 0
1.000707 -0.000114 0
1.000741 -0.000098 0
1.000769 -0.000083 0
1.000793 -0.000071 0
1.000814 -0.000061 0
1.000832 -0.000052 0
1.000847 -0.000045 0
1.000860 -0.000039 0
1.000871 -0.000033 0
1.000881 -0.000029 0
1.000890 -0.000026 0
1.000898 -0.000023 0
1.000905 -0.000022 0
1.000911 -0.000022 0
1.000918 -0.000023 0
1.000924 -0.000025 0
1.000931 -0.000029 0
1.000939 -0.000036 0
1.000948 -0.000047 0
1.000959 -0.000063 0
1.000972 -0.000087 0
1.000987 -0.000123 0
1.001000 -0.000176 0
1.001008 -0.000253 0
1.000980 -0.000352 0
1.000920 -0.000403 0
1.000000 -0.000550 0
1.000140 -0.001855 0
1.001046 -0.003440 0
1.002320 -0.005267 0
1.003926 -0.007420 0
1.005922 -0.009802 0
1.008318 -0.012272 0
1.011095 -0.014826 0
1.014263 -0.017634 0
1.017879 -0.020970 0
1.022055 -0.025145 0
1.026950 -0.030495 0
1.032797 -0.037403 0
1.039935 -0.046323 0
1.048809 -0.057803 0
1.059989 -0.072575 0
1.074394 -0.091636 0
1.093995 -0.115938 0
1.121727 -0.145775 0
1.161259 -0.181289 0
1.222107 -0.215590 0
1.308806 -0.242569 0
1.449434 -0.217510 0
1.528601 -0.127399 0
1.558295 -0.017397 0
1.543821 0.084386 0
1.478638 0.162774 0
1.396927 0.216879 0
1.328378 0.244191 0
1.269736 0.245663 0
1.180750 0.226390 0
1.086195 0.191213 0
1.026206 0.149579 0
0.993479 0.106859 0
0.978890 0.072297 0
0.972782 0.050274 0
0.969401 0.032982 0
0.967574 0.019931 0
0.967176 0.010790 0
0.968069 0.004461 0
0.969908 0.000053 0
0.972309 -0.002956 0
0.974962 -0.004906 0
0.977655 -0.006061 0
0.980255 -0.006637 0
0.982689 -0.006799 0
0.984913 -0.006685 0
0.986924 -0.006390 0
0.988718 -0.005969 0
0.990308 -0.005496 0
0.991710 -0.005015 0
0.992939 -0.004528 0
0.994017 -0.004051 0
0.994959 -0.003602 0
0.995777 -0.003188 0
0.996486 -0.002809 0
0.997098 -0.002464 0
0.997628 -0.002155 0
0.998087 -0.001878 0
0.998483 -0.001634 0
0.998825 -0.001419 0
0.999121 -0.001230 0
0.999375 -0.001065 0
0.999598 -0.000921 0
0.999782 -0.000791 0
0.999951 -0.000692 0
1.000103 -0.000610 0
1.000224 -0.000525 0
1.000325 -0.000450 0
1.000411 -0.000385 0
1.000486 -0.000329 0
1.000550 -0.000281 0
1.000606 -0.000239 0
1.000653 -0.000204 0
1.000694 -0.000174 0
1.000729 -0.000149 0
1.000759 -0.000127 0
1.000785 -0.000109 0
1.000807 -0.000093 0
1.000825 -0.000079 0
1.000841 -0.000068 0
1.000855 -0.000058 0
1.000867 -0.000050 0
1.000877 -0.000043 0
1.000886 -0.000038 0
1.000893 -0.000034 0
1.000900 -0.000030 0
1.000906 -0.000028 0
1.000911 -0.000028 0
1.000916 -0.000028 0
1.000921 -0.000031 0
1.000925 -0.000036 0
1.000930 -0.000043 0
1.000935 -0.000055 0
1.000939 -0.000071 0
1.000944 -0.000095 0
1.000946 -0.000129 0
1.000943 -0.000175 0
1.000929 -0.000235 0
1.000895 -0.000307 0
1.000836 -0.000344 0
1.000000 -0.000534 0
1.000020 -0.002299 0
1.000522 -0.004514 0
1.001756 -0.006627 0
1.003178 -0.009082 0
1.004856 -0.011807 0
1.006781 -0.014612 0
1.008953 -0.017492 0
1.011382 -0.020646 0
1.014092 -0.024390 0
1.017132 -0.029072 0
1.020556 -0.035082 0
1.024483 -0.042892 0
1.029173 -0.053052 0
1.034957 -0.066187 0
1.042032 -0.083226 0
1.050510 -0.106026 0
1.062894 -0.136815 0
1.082883 -0.176827 0
1.112721 -0.231014 0
1.166593 -0.295091 0
1.266361 -0.380394 0
1.533175 -0.351787 0
1.614017 -0.188930 0
1.628075 -0.028729 0
1.630029 0.131359 0
1.570948 0.251655 0
1.455677 0.291633 0
1.297846 0.288923 0
1.117175 0.315289 0
0.978878 0.343129 0
0.928283 0.293748 0
0.921986 0.205116 0
0.938974 0.131711 0
0.948881 0.081638 0
0.951181 0.052528 0
0.951918 0.033406 0
0.953351 0.019551 0
0.956041 0.009347 0
0.959745 0.002037 0
0.963958 -0.002974 0
0.968247 -0.006215 0
0.972339 -0.008144 0
0.976093 -0.009130 0
0.979457 -0.009461 0
0.982419 -0.009347 0
0.985012 -0.008950 0
0.987248 -0.008384 0
0.989179 -0.007726 0
0.990850 -0.007033 0
0.992285 -0.006339 0
0.993515 -0.005676 0
0.994574 -0.005053 0
0.995483 -0.004473 0
0.996262 -0.003937 0
0.996927 -0.003452 0
0.997497 -0.003018 0
0.997985 -0.002631 0
0.998403 -0.002290 0
0.998764 -0.001988 0
0.999071 -0.001723 0
0.999339 -0.001491 0
0.999557 -0.001294 0
0.999765 -0.001116 0
0.999937 -0.000965 0
1.000092 -0.000845 0
1.000213 -0.000732 0
1.000316 -0.000629 0
1.000405 -0.000539 0
1.000480 -0.000461 0
1.000545 -0.000394 0
1.000600 -0.000337 0
1.000649 -0.000288 0
1.000690 -0.000246 0
1.000725 -0.000210 0
1.000756 -0.000180 0
1.000782 -0.000153 0
1.000804 -0.000131 0
1.000823 -0.000112 0
1.000839 -0.000096 0
1.000853 -0.000082 0
1.000865 -0.000070 0
1.000875 -0.000061 0
1.000884 -0.000052 0
1.000891 -0.000046 0
1.000898 -0.000040 0
1.000903 -0.000036 0
1.000908 -0.000034 0
1.000912 -0.000032 0
1.000915 -0.000033 0
1.000918 -0.000035 0
1.000920 -0.000039 0
1.000921 -0.000046 0
1.000922 -0.000057 0
1.000921 -0.000072 0
1.000917 -0.000094 0
1.000910 -0.000123 0
1.000896 -0.000160 0
1.000871 -0.000206 0
1.000832 -0.000259 0
1.000774 -0.000286 0
1.000000 -0.000588 0
1.000199 -0.002399 0
0.999962 -0.005185 0
1.001018 -0.007932 0
1.002338 -0.010529 0
1.003714 -0.013413 0
1.005145 -0.016377 0
1.006650 -0.019435 0
1.008270 -0.022781 0
1.009999 -0.026728 0
1.011838 -0.031617 0
1.013664 -0.037853 0
1.015405 -0.046027 0
1.017357 -0.056804 0
1.019817 -0.070668 0
1.022621 -0.088135 0
1.023059 -0.112505 0
1.025281 -0.148316 0
1.034153 -0.195607 0
1.045393 -0.265005 0
1.062109 -0.369236 0
1.171597 -0.609156 0
1.538906 -0.565170 0
1.511320 -0.222302 0
1.457461 -0.033413 0
1.484336 0.141510 0
1.516561 0.337123 0
1.447968 0.489978 0
1.303194 0.582691 0
1.143189 0.564629 0
1.064913 0.415280 0
1.031662 0.248102 0
0.986757 0.138887 0
0.959554 0.079962 0
0.937996 0.060088 0
0.929757 0.047235 0
0.930247 0.030809 0
0.935375 0.015806 0
0.942540 0.004394 0
0.950209 -0.003457 0
0.957553 -0.008450 0
0.964180 -0.011338 0
0.969957 -0.012754 0
0.974893 -0.013181 0
0.979056 -0.012963 0
0.982553 -0.012354 0
0.985476 -0.011515 0
0.987911 -0.010557 0
0.989946 -0.009572 0
0.991650 -0.008604 0
0.993085 -0.007680 0
0.994293 -0.006817 0
0.995305 -0.006019 0
0.996154 -0.005291 0
0.996869 -0.004632 0
0.997474 -0.004045 0
0.997985 -0.003523 0
0.998418 -0.003061 0
0.998786 -0.002658 0
0.999107 -0.002302 0
0.999363 -0.001995 0
0.999601 -0.001716 0
0.999797 -0.001491 0
0.999967 -0.001302 0
1.000119 -0.001118 0
1.000240 -0.000968 0
1.000341 -0.000835 0
1.000425 -0.000717 0
1.000497 -0.000614 0
1.000559 -0.000526 0
1.000613 -0.000450 0
1.000659 -0.000385 0
1.000699 -0.000329 0
1.000733 -0.000281 0
1.000762 -0.000240 0
1.000787 -0.000206 0
1.000808 -0.000176 0
1.000827 -0.000150 0
1.000842 -0.000128 0
1.000856 -0.000110 0
1.000867 -0.000094 0
1.000877 -0.000081 0
1.000885 -0.000069 0
1.000892 -0.000060 0
1.000898 -0.000052 0
1.000903 -0.000046 0
1.000907 -0.000041 0
1.000911 -0.000037 0
1.000913 -0.000035 0
1.000915 -0.000035 0
1.000915 -0.000036 0
1.000915 -0.000039 0
1.000914 -0.000045 0
1.000910 -0.000054 0
1.000904 -0.000067 0
1.000895 -0.000085 0
1.000881 -0.000108 0
1.000859 -0.000137 0
1.000828 -0.000171 0
1.000785 -0.000210 0
1.000728 -0.000229 0
1.000000 -0.000750 0
1.000250 -0.002283 0
0.999861 -0.005342 0
1.000264 -0.009011 0
1.001423 -0.011786 0
1.002496 -0.014623 0
1.003457 -0.017557 0
1.004269 -0.020625 0
1.005080 -0.024003 0
1.005823 -0.027966 0
1.006568 -0.032744 0
1.006877 -0.038656 0
1.006210 -0.046593 0
1.006214 -0.057470 0
1.005106 -0.071458 0
1.002767 -0.086474 0
0.999006 -0.108691 0
0.994916 -0.147915 0
0.978798 -0.196946 0
0.989439 -0.258976 0
0.927749 -0.421299 0
1.040901 -0.857196 0
0.745974 -0.584026 0
-0.003362 0.000000 0
0.000127 0.000000 0
0.650683 0.074005 0
0.790313 0.288021 0
1.025193 0.504997 0
1.130024 0.593700 0
1.183643 0.553568 0
1.172114 0.454653 0
1.089293 0.371902 0
0.999948 0.277222 0
0.931235 0.180470 0
0.896319 0.111433 0
0.891131 0.060275 0
0.899863 0.027787 0
0.913416 0.007257 0
0.927583 -0.005488 0
0.940559 -0.012978 0
0.951708 -0.016946 0
0.960957 -0.018620 0
0.968485 -0.018859 0
0.974554 -0.018231 0
0.979433 -0.017122 0
0.983347 -0.015768 0
0.986496 -0.014308 0
0.989046 -0.012854 0
0.991108 -0.011466 0
0.992784 -0.010173 0
0.994163 -0.008984 0
0.995293 -0.007896 0
0.996213 -0.006914 0
0.996971 -0.006037 0
0.997603 -0.005258 0
0.998132 -0.004568 0
0.998559 -0.003962 0
0.998923 -0.003434 0
0.999227 -0.002979 0
0.999510 -0.002565 0
0.999714 -0.002217 0
0.999905 -0.001925 0
1.000076 -0.001660 0
1.000200 -0.001439 0
1.000313 -0.001239 0
1.000405 -0.001067 0
1.000481 -0.000917 0
1.000545 -0.000786 0
1.000601 -0.000674 0
1.000648 -0.000577 0
1.000689 -0.000494 0
1.000724 -0.000423 0
1.000754 -0.000362 0
1.000780 -0.000309 0
1.000803 -0.000265 0
1.000822 -0.000226 0
1.000838 -0.000193 0
1.000852 -0.000165 0
1.000864 -0.000141 0
1.000874 -0.000121 0
1.000883 -0.000104 0
1.000890 -0.000089 0
1.000897 -0.000076 0
1.000902 -0.000066 0
1.000906 -0.000057 0
1.000909 -0.000050 0
1.000912 -0.000044 0
1.000914 -0.000040 0
1.000915 -0.000037 0
1.000915 -0.000035 0
1.000914 -0.000035 0
1.000912 -0.000037 0
1.000907 -0.000041 0
1.000901 -0.000048 0
1.000891 -0.000057 0
1.000878 -0.000070 0
1.000859 -0.000087 0
1.000833 -0.000108 0
1.000798 -0.000132 0
1.000752 -0.000159 0
1.000695 -0.000172 0
1.000000 -0.000855 0
1.000043 -0.002282 0
1.000074 -0.005208 0
0.999776 -0.009502 0
1.000343 -0.012769 0
1.001210 -0.015456 0
1.001835 -0.018158 0
1.001872 -0.021066 0
1.002022 -0.024343 0
1.002028 -0.028223 0
1.001556 -0.032678 0
1.000713 -0.037503 0
0.999322 -0.045371 0
0.997035 -0.055706 0
0.992844 -0.067228 0
0.986295 -0.082041 0
0.979445 -0.104659 0
0.966449 -0.128114 0
0.942740 -0.190136 0
0.903581 -0.213962 0
0.860936 -0.420703 0
0.681571 -0.534875 0
0.000000 -0.004048 0
-0.685711 0.202573 0
-0.631032 0.000000 0
0.000000 0.000000 0
0.089903 -0.021491 0
0.302849 0.150264 0
0.596184 0.424238 0
0.721716 0.522536 0
0.741015 0.509628 0
0.737162 0.420266 0
0.753190 0.296942 0
0.771822 0.183590 0
0.800803 0.100190 0
0.831338 0.043689 0
0.861697 0.008524 0
0.889583 -0.011916 0
0.913427 -0.022751 0
0.932790 -0.027585 0
0.948008 -0.028849 0
0.959757 -0.028115 0
0.968759 -0.026352 0
0.975663 -0.024130 0
0.980978 -0.021757 0
0.985078 -0.019417 0
0.988267 -0.017215 0
0.990754 -0.015170 0
0.992723 -0.013311 0
0.994286 -0.011660 0
0.995550 -0.010189 0
0.996548 -0.008868 0
0.997315 -0.007698 0
0.997949 -0.006680 0
0.998445 -0.005794 0
0.998904 -0.005001 0
0.999220 -0.004314 0
0.999487 -0.003729 0
0.999750 -0.003245 0
0.999953 -0.002790 0
1.000126 -0.002390 0
1.000252 -0.002077 0
1.000363 -0.001787 0
1.000449 -0.001540 0
1.000521 -0.001323 0
1.000581 -0.001136 0
1.000632 -0.000975 0
1.000675 -0.000836 0
1.000712 -0.000717 0
1.000744 -0.000614 0
1.000771 -0.000526 0
1.000794 -0.000451 0
1.000814 -0.000385 0
1.000832 -0.000330 0
1.000846 -0.000282 0
1.000859 -0.000241 0
1.000870 -0.000206 0
1.000879 -0.000176 0
1.000887 -0.000151 0
1.000894 -0.000129 0
1.000900 -0.000110 0
1.000905 -0.000095 0
1.000909 -0.000081 0
1.000912 -0.000070 0
1.000915 -0.000060 0
1.000917 -0.000052 0
1.000918 -0.000046 0
1.000918 -0.000041 0
1.000918 -0.000037 0
1.000917 -0.000034 0
1.000914 -0.000033 0
1.000910 -0.000033 0
1.000904 -0.000035 0
1.000895 -0.000039 0
1.000883 -0.000044 0
1.000866 -0.000052 0
1.000844 -0.000063 0
1.000814 -0.000076 0
1.000777 -0.000091 0
1.000731 -0.000108 0
1.000674 -0.000116 0
1.000000 -0.000810 0
0.999804 -0.002379 0
0.999987 -0.005085 0
0.999673 -0.009288 0
0.999587 -0.013228 0
0.999909 -0.016123 0
1.000119 -0.018227 0
1.000009 -0.020820 0
0.999552 -0.024167 0
0.998754 -0.027508 0
0.997355 -0.031436 0
0.995591 -0.036430 0
0.993617 -0.042922 0
0.989142 -0.050999 0
0.982962 -0.060725 0
0.974151 -0.073082 0
0.961649 -0.088851 0
0.940050 -0.111216 0
0.915453 -0.134083 0
0.840519 -0.177177 0
0.804545 -0.199295 0
0.477927 -0.094635 0
0.325443 -0.000826 0
0.000000 0.000000 0
0.000000 0.000000 0
0.000000 0.000000 0
0.000000 0.000000 0
-0.022560 -0.002356 0
0.144283 0.174830 0
0.348090 0.408735 0
0.445884 0.439204 0
0.507476 0.359724 0
0.567177 0.242560 0
0.636213 0.132855 0
0.705545 0.051915 0
0.769646 -0.000620 0
0.825058 -0.030460 0
0.869977 -0.044475 0
0.904502 -0.048696 0
0.930058 -0.047560 0
0.948613 -0.043914 0
0.962006 -0.039372 0
0.971677 -0.034767 0
0.978789 -0.030451 0
0.984060 -0.026537 0
0.987967 -0.023057 0
0.990918 -0.019984 0
0.993116 -0.017310 0