# vtk DataFile Version 2.0
generated by CFD-lab course output (written by Tobias Neckel) 
ASCII

DATASET STRUCTURED_GRID
DIMENSIONS  101 21 1 
POINTS 2121 float

0.000000 0.000000 0
0.100000 0.000000 0
0.200000 0.000000 0
0.300000 0.000000 0
0.400000 0.000000 0
0.500000 0.000000 0
0.600000 0.000000 0
0.700000 0.000000 0
0.800000 0.000000 0
0.900000 0.000000 0
1.000000 0.000000 0
1.100000 0.000000 0
1.200000 0.000000 0
1.300000 0.000000 0
1.400000 0.000000 0
1.500000 0.000000 0
1.600000 0.000000 0
1.700000 0.000000 0
1.800000 0.000000 0
1.900000 0.000000 0
2.000000 0.000000 0
2.100000 0.000000 0
2.200000 0.000000 0
2.300000 0.000000 0
2.400000 0.000000 0
2.500000 0.000000 0
2.600000 0.000000 0
2.700000 0.000000 0
2.800000 0.000000 0
2.900000 0.000000 0
3.000000 0.000000 0
3.100000 0.000000 0
3.200000 0.000000 0
3.300000 0.000000 0
3.400000 0.000000 0
3.500000 0.000000 0
3.600000 0.000000 0
3.700000 0.000000 0
3.800000 0.000000 0
3.900000 0.000000 0
4.000000 0.000000 0
4.100000 0.000000 0
4.200000 0.000000 0
4.300000 0.000000 0
4.400000 0.000000 0
4.500000 0.000000 0
4.600000 0.000000 0
4.700000 0.000000 0
4.800000 0.000000 0
4.900000 0.000000 0
5.000000 0.000000 0
5.100000 0.000000 0
5.200000 0.000000 0
5.300000 0.000000 0
5.400000 0.000000 0
5.500000 0.000000 0
5.600000 0.000000 0
5.700000 0.000000 0
5.800000 0.000000 0
5.900000 0.000000 0
6.000000 0.000000 0
6.100000 0.000000 0
6.200000 0.000000 0
6.300000 0.000000 0
6.400000 0.000000 0
6.500000 0.000000 0
6.600000 0.000000 0
6.700000 0.000000 0
6.800000 0.000000 0
6.900000 0.000000 0
7.000000 0.000000 0
7.100000 0.000000 0
7.200000 0.000000 0
7.300000 0.000000 0
7.400000 0.000000 0
7.500000 0.000000 0
7.600000 0.000000 0
7.700000 0.000000 0
7.800000 0.000000 0
7.900000 0.000000 0
8.000000 0.000000 0
8.100000 0.000000 0
8.200000 0.000000 0
8.300000 0.000000 0
8.400000 0.000000 0
8.500000 0.000000 0
8.600000 0.000000 0
8.700000 0.000000 0
8.800000 0.000000 0
8.900000 0.000000 0
9.000000 0.000000 0
9.100000 0.000000 0
9.200000 0.000000 0
9.300000 0.000000 0
9.400000 0.000000 0
9.500000 0.000000 0
9.600000 0.000000 0
9.700000 0.000000 0
9.800000 0.000000 0
9.900000 0.000000 0
10.000000 0.000000 0
0.000000 0.100000 0
0.100000 0.100000 0
0.200000 0.100000 0
0.300000 0.100000 0
0.400000 0.100000 0
0.500000 0.100000 0
0.600000 0.100000 0
0.700000 0.100000 0
0.800000 0.100000 0
0.900000 0.100000 0
1.000000 0.100000 0
1.100000 0.100000 0
1.200000 0.100000 0
1.300000 0.100000 0
1.400000 0.100000 0
1.500000 0.100000 0
1.600000 0.100000 0
1.700000 0.100000 0
1.800000 0.100000 0
1.900000 0.100000 0
2.000000 0.100000 0
2.100000 0.100000 0
2.200000 0.100000 0
2.300000 0.100000 0
2.400000 0.100000 0
2.500000 0.100000 0
2.600000 0.100000 0
2.700000 0.100000 0
2.800000 0.100000 0
2.900000 0.100000 0
3.000000 0.100000 0
3.100000 0.100000 0
3.200000 0.100000 0
3.300000 0.100000 0
3.400000 0.100000 0
3.500000 0.100000 0
3.600000 0.100000 0
3.700000 0.100000 0
3.800000 0.100000 0
3.900000 0.100000 0
4.000000 0.100000 0
4.100000 0.100000 0
4.200000 0.100000 0
4.300000 0.100000 0
4.400000 0.100000 0
4.500000 0.100000 0
4.600000 0.100000 0
4.700000 0.100000 0
4.800000 0.100000 0
4.900000 0.100000 0
5.000000 0.100000 0
5.100000 0.100000 0
5.200000 0.100000 0
5.300000 0.100000 0
5.400000 0.100000 0
5.500000 0.100000 0
5.600000 0.100000 0
5.700000 0.100000 0
5.800000 0.100000 0
5.900000 0.100000 0
6.000000 0.100000 0
6.100000 0.100000 0
6.200000 0.100000 0
6.300000 0.100000 0
6.400000 0.100000 0
6.500000 0.100000 0
6.600000 0.100000 0
6.700000 0.100000 0
6.800000 0.100000 0
6.900000 0.100000 0
7.000000 0.100000 0
7.100000 0.100000 0
7.200000 0.100000 0
7.300000 0.100000 0
7.400000 0.100000 0
7.500000 0.100000 0
7.600000 0.100000 0
7.700000 0.100000 0
7.800000 0.100000 0
7.900000 0.100000 0
8.000000 0.100000 0
8.100000 0.100000 0
8.200000 0.100000 0
8.300000 0.100000 0
8.400000 0.100000 0
8.500000 0.100000 0
8.600000 0.100000 0
8.700000 0.100000 0
8.800000 0.100000 0
8.900000 0.100000 0
9.000000 0.100000 0
9.100000 0.100000 0
9.200000 0.100000 0
9.300000 0.100000 0
9.400000 0.100000 0
9.500000 0.100000 0
9.600000 0.100000 0
9.700000 0.100000 0
9.800000 0.100000 0
9.900000 0.100000 0
10.000000 0.100000 0
0.000000 0.200000 0
0.100000 0.200000 0
0.200000 0.200000 0
0.300000 0.200000 0
0.400000 0.200000 0
0.500000 0.200000 0
0.600000 0.200000 0
0.700000 0.200000 0
0.800000 0.200000 0
0.900000 0.200000 0
1.000000 0.200000 0
1.100000 0.200000 0
1.200000 0.200000 0
1.300000 0.200000 0
1.400000 0.200000 0
1.500000 0.200000 0
1.600000 0.200000 0
1.700000 0.200000 0
1.800000 0.200000 0
1.900000 0.200000 0
2.000000 0.200000 0
2.100000 0.200000 0
2.200000 0.200000 0
2.300000 0.200000 0
2.400000 0.200000 0
2.500000 0.200000 0
2.600000 0.200000 0
2.700000 0.200000 0
2.800000 0.200000 0
2.900000 0.200000 0
3.000000 0.200000 0
3.100000 0.200000 0
3.200000 0.200000 0
3.300000 0.200000 0
3.400000 0.200000 0
3.500000 0.200000 0
3.600000 0.200000 0
3.700000 0.200000 0
3.800000 0.200000 0
3.900000 0.200000 0
4.000000 0.200000 0
4.100000 0.200000 0
4.200000 0.200000 0
4.300000 0.200000 0
4.400000 0.200000 0
4.500000 0.200000 0
4.600000 0.200000 0
4.700000 0.200000 0
4.800000 0.200000 0
4.900000 0.200000 0
5.000000 0.200000 0
5.100000 0.200000 0
5.200000 0.200000 0
5.300000 0.200000 0
5.400000 0.200000 0
5.500000 0.200000 0
5.600000 0.200000 0
5.700000 0.200000 0
5.800000 0.200000 0
5.900000 0.200000 0
6.000000 0.200000 0
6.100000 0.200000 0
6.200000 0.200000 0
6.300000 0.200000 0
6.400000 0.200000 0
6.500000 0.200000 0
6.600000 0.200000 0
6.700000 0.200000 0
6.800000 0.200000 0
6.900000 0.200000 0
7.000000 0.200000 0
7.100000 0.200000 0
7.200000 0.200000 0
7.300000 0.200000 0
7.400000 0.200000 0
7.500000 0.200000 0
7.600000 0.200000 0
7.700000 0.200000 0
7.800000 0.200000 0
7.900000 0.200000 0
8.000000 0.200000 0
8.100000 0.200000 0
8.200000 0.200000 0
8.300000 0.200000 0
8.400000 0.200000 0
8.500000 0.200000 0
8.600000 0.200000 0
8.700000 0.200000 0
8.800000 0.200000 0
8.900000 0.200000 0
9.000000 0.200000 0
9.100000 0.200000 0
9.200000 0.200000 0
9.300000 0.200000 0
9.400000 0.200000 0
9.500000 0.200000 0
9.600000 0.200000 0
9.700000 0.200000 0
9.800000 0.200000 0
9.900000 0.200000 0
10.000000 0.200000 0
0.000000 0.300000 0
0.100000 0.300000 0
0.200000 0.300000 0
0.300000 0.300000 0
0.400000 0.300000 0
0.500000 0.300000 0
0.600000 0.300000 0
0.700000 0.300000 0
0.800000 0.300000 0
0.900000 0.300000 0
1.000000 0.300000 0
1.100000 0.300000 0
1.200000 0.300000 0
1.300000 0.300000 0
1.400000 0.300000 0
1.500000 0.300000 0
1.600000 0.300000 0
1.700000 0.300000 0
1.800000 0.300000 0
1.900000 0.300000 0
2.000000 0.300000 0
2.100000 0.300000 0
2.200000 0.300000 0
2.300000 0.300000 0
2.400000 0.300000 0
2.500000 0.300000 0
2.600000 0.300000 0
2.700000 0.300000 0
2.800000 0.300000 0
2.900000 0.300000 0
3.000000 0.300000 0
3.100000 0.300000 0
3.200000 0.300000 0
3.300000 0.300000 0
3.400000 0.300000 0
3.500000 0.300000 0
3.600000 0.300000 0
3.700000 0.300000 0
3.800000 0.300000 0
3.900000 0.300000 0
4.000000 0.300000 0
4.100000 0.300000 0
4.200000 0.300000 0
4.300000 0.300000 0
4.400000 0.300000 0
4.500000 0.300000 0
4.600000 0.300000 0
4.700000 0.300000 0
4.800000 0.300000 0
4.900000 0.300000 0
5.000000 0.300000 0
5.100000 0.300000 0
5.200000 0.300000 0
5.300000 0.300000 0
5.400000 0.300000 0
5.500000 0.300000 0
5.600000 0.300000 0
5.700000 0.300000 0
5.800000 0.300000 0
5.900000 0.300000 0
6.000000 0.300000 0
6.100000 0.300000 0
6.200000 0.300000 0
6.300000 0.300000 0
6.400000 0.300000 0
6.500000 0.300000 0
6.600000 0.300000 0
6.700000 0.300000 0
6.800000 0.300000 0
6.900000 0.300000 0
7.000000 0.300000 0
7.100000 0.300000 0
7.200000 0.300000 0
7.300000 0.300000 0
7.400000 0.300000 0
7.500000 0.300000 0
7.600000 0.300000 0
7.700000 0.300000 0
7.800000 0.300000 0
7.900000 0.300000 0
8.000000 0.300000 0
8.100000 0.300000 0
8.200000 0.300000 0
8.300000 0.300000 0
8.400000 0.300000 0
8.500000 0.300000 0
8.600000 0.300000 0
8.700000 0.300000 0
8.800000 0.300000 0
8.900000 0.300000 0
9.000000 0.300000 0
9.100000 0.300000 0
9.200000 0.300000 0
9.300000 0.300000 0
9.400000 0.300000 0
9.500000 0.300000 0
9.600000 0.300000 0
9.700000 0.300000 0
9.800000 0.300000 0
9.900000 0.300000 0
10.000000 0.300000 0
0.000000 0.400000 0
0.100000 0.400000 0
0.200000 0.400000 0
0.300000 0.400000 0
0.400000 0.400000 0
0.500000 0.400000 0
0.600000 0.400000 0
0.700000 0.400000 0
0.800000 0.400000 0
0.900000 0.400000 0
1.000000 0.400000 0
1.100000 0.400000 0
1.200000 0.400000 0
1.300000 0.400000 0
1.400000 0.400000 0
1.500000 0.400000 0
1.600000 0.400000 0
1.700000 0.400000 0
1.800000 0.400000 0
1.900000 0.400000 0
2.000000 0.400000 0
2.100000 0.400000 0
2.200000 0.400000 0
2.300000 0.400000 0
2.400000 0.400000 0
2.500000 0.400000 0
2.600000 0.400000 0
2.700000 0.400000 0
2.800000 0.400000 0
2.900000 0.400000 0
3.000000 0.400000 0
3.100000 0.400000 0
3.200000 0.400000 0
3.300000 0.400000 0
3.400000 0.400000 0
3.500000 0.400000 0
3.600000 0.400000 0
3.700000 0.400000 0
3.800000 0.400000 0
3.900000 0.400000 0
4.000000 0.400000 0
4.100000 0.400000 0
4.200000 0.400000 0
4.300000 0.400000 0
4.400000 0.400000 0
4.500000 0.400000 0
4.600000 0.400000 0
4.700000 0.400000 0
4.800000 0.400000 0
4.900000 0.400000 0
5.000000 0.400000 0
5.100000 0.400000 0
5.200000 0.400000 0
5.300000 0.400000 0
5.400000 0.400000 0
5.500000 0.400000 0
5.600000 0.400000 0
5.700000 0.400000 0
5.800000 0.400000 0
5.900000 0.400000 0
6.000000 0.400000 0
6.100000 0.400000 0
6.200000 0.400000 0
6.300000 0.400000 0
6.400000 0.400000 0
6.500000 0.400000 0
6.600000 0.400000 0
6.700000 0.400000 0
6.800000 0.400000 0
6.900000 0.400000 0
7.000000 0.400000 0
7.100000 0.400000 0
7.200000 0.400000 0
7.300000 0.400000 0
7.400000 0.400000 0
7.500000 0.400000 0
7.600000 0.400000 0
7.700000 0.400000 0
7.800000 0.400000 0
7.900000 0.400000 0
8.000000 0.400000 0
8.100000 0.400000 0
8.200000 0.400000 0
8.300000 0.400000 0
8.400000 0.400000 0
8.500000 0.400000 0
8.600000 0.400000 0
[...]
POINT_DATA 2121 

VECTORS velocity float
0.500000 0.000000 0
-0.000001 0.000000 0
-0.000002 0.000000 0
-0.000002 0.000000 0
0.000001 0.000000 0
0.000014 0.000000 0
0.000031 0.000000 0
0.000053 0.000000 0
0.000081 0.000000 0
0.000119 0.000000 0
0.000166 0.000000 0
0.000220 0.000000 0
0.000282 0.000000 0
0.000351 0.000000 0
0.000430 0.000000 0
0.000518 0.000000 0
0.000617 0.000000 0
0.000729 0.000000 0
0.000855 0.000000 0
0.000997 0.000000 0
0.001161 0.000000 0
0.001352 0.000000 0
0.001569 0.000000 0
0.001782 0.000000 0
0.001860 0.000000 0
0.002009 0.000000 0
0.002070 0.000000 0
0.002011 0.000000 0
0.001856 0.000000 0
0.001636 0.000000 0
0.001329 0.000000 0
0.000865 0.000000 0
0.000162 0.000000 0
-0.000839 0.000000 0
-0.002147 0.000000 0
-0.003694 0.000000 0
-0.005283 0.000000 0
-0.006580 0.000000 0
-0.007234 0.000000 0
-0.006945 0.000000 0
-0.005589 0.000000 0
-0.003358 0.000000 0
-0.000726 0.000000 0
0.001749 0.000000 0
0.003800 0.000000 0
0.005371 0.000000 0
0.006362 0.000000 0
0.006689 0.000000 0
0.007215 0.000000 0
0.008881 0.000000 0
0.002156 0.000000 0
-0.019432 0.000000 0
-0.021042 0.000000 0
0.010404 0.000000 0
0.035538 0.000000 0
0.032155 0.000000 0
0.018953 0.000000 0
0.007124 0.000000 0
-0.000753 0.000000 0
-0.007019 0.000000 0
-0.012181 0.000000 0
-0.012783 0.000000 0
-0.010342 0.000000 0
-0.013959 0.000000 0
-0.014534 0.000000 0
-0.012932 0.000000 0
-0.010491 0.000000 0
-0.007012 0.000000 0
-0.002175 0.000000 0
0.005161 0.000000 0
0.018277 0.000000 0
0.038268 0.000000 0
0.026559 0.000000 0
0.006112 0.000000 0
-0.004860 0.000000 0
-0.000935 0.000000 0
0.003616 0.000000 0
0.005941 0.000000 0
0.006270 0.000000 0
0.005185 0.000000 0
0.003973 0.000000 0
0.003162 0.000000 0
0.002538 0.000000 0
0.001824 0.000000 0
0.001026 0.000000 0
0.000096 0.000000 0
-0.001022 0.000000 0
-0.002309 0.000000 0
-0.003653 0.000000 0
-0.005143 0.000000 0
-0.006876 0.000000 0
-0.008640 0.000000 0
-0.010189 0.000000 0
-0.011455 0.000000 0
-0.012583 0.000000 0
-0.013174 0.000000 0
-0.013179 0.000000 0
-0.013002 0.000000 0
-0.013297 0.000000 0
-0.013975 0.000000 0
-0.015881 0.000000 0
1.000000 0.000272 0
1.000141 0.000516 0
1.000566 0.000333 0
1.001370 -0.000062 0
1.002644 -0.000667 0
1.004474 -0.001296 0
1.006903 -0.001910 0
1.010023 -0.002684 0
1.013961 -0.003619 0
1.018881 -0.004750 0
1.025007 -0.006151 0
1.032639 -0.007918 0
1.042171 -0.010158 0
1.054117 -0.012995 0
1.069123 -0.016562 0
1.087984 -0.020984 0
1.111633 -0.026335 0
1.141086 -0.032558 0
1.177285 -0.039348 0
1.220818 -0.045988 0
1.271398 -0.051184 0
1.326998 -0.053132 0
1.383520 -0.049774 0
1.433251 -0.040424 0
1.469530 -0.026861 0
1.489817 -0.011777 0
1.494353 0.002790 0
1.484714 0.015727 0
1.463661 0.027026 0
1.432093 0.037024 0
1.390753 0.045131 0
1.341734 0.049918 0
1.289138 0.049704 0
1.238960 0.043256 0
1.198279 0.030438 0
1.173397 0.012208 0
1.170165 -0.009000 0
1.190343 -0.029414 0
1.231693 -0.044790 0
1.286819 -0.051074 0
1.343773 -0.045959 0
1.389085 -0.030474 0
1.412705 -0.009024 0
1.412242 0.013261 0
1.390134 0.033121 0
1.350389 0.049028 0
1.297961 0.059636 0
1.238337 0.065187 0
1.173791 0.071800 0
1.109672 0.073546 0
1.084540 0.007881 0
1.094792 -0.142337 0
1.016055 -0.161816 0
0.913420 0.023173 0
0.771875 0.216092 0
0.637771 0.257669 0
0.562274 0.161391 0
0.539608 0.050133 0
0.571830 -0.028307 0
0.621467 -0.081656 0
0.691688 -0.115353 0
0.802261 -0.114327 0
0.928323 -0.100578 0
1.043517 -0.105263 0
1.151858 -0.108219 0
1.244805 -0.092336 0
1.314721 -0.067449 0
1.357255 -0.035137 0
1.366342 0.006115 0
1.331085 0.065999 0
1.235416 0.166348 0
1.077682 0.273000 0
0.924700 0.232138 0
0.860505 0.070628 0
0.817277 -0.023554 0
0.744699 -0.020476 0
0.672606 0.016278 0
0.606033 0.042011 0
0.543804 0.050024 0
0.492166 0.044695 0
0.456725 0.035643 0
0.429453 0.029729 0
0.404898 0.025936 0
0.381971 0.021355 0
0.360650 0.016796 0
0.344500 0.011754 0
0.334637 0.004320 0
0.332284 -0.005779 0
0.339634 -0.016154 0
0.355572 -0.027336 0
0.381846 -0.040731 0
0.419632 -0.052887 0
0.469050 -0.060894 0
0.529960 -0.067105 0
0.599240 -0.072346 0
0.676127 -0.072979 0
0.756715 -0.067368 0
0.835872 -0.058331 0
0.902743 -0.048999 0
0.952896 -0.036201 0
0.980941 -0.029845 0
1.000000 -0.000156 0
1.000724 -0.000587 0
1.001958 -0.001242 0
1.003650 -0.002091 0
1.005801 -0.003118 0
1.008372 -0.004273 0
1.011554 -0.005563 0
1.015386 -0.007073 0
1.019960 -0.008872 0
1.025423 -0.011061 0
1.031977 -0.013772 0
1.039887 -0.017179 0
1.049506 -0.021493 0
1.061300 -0.026967 0
1.075885 -0.033882 0
1.094054 -0.042525 0
1.116811 -0.053117 0
1.145393 -0.065667 0
1.181172 -0.079747 0
1.225524 -0.094127 0
1.279340 -0.106195 0
1.341267 -0.112136 0
1.408922 -0.106267 0
1.467731 -0.086024 0
1.507322 -0.056580 0
1.528025 -0.024836 0
1.532449 0.005090 0
1.523329 0.030680 0
1.501773 0.052609 0
1.469396 0.072897 0
1.426026 0.090349 0
1.372769 0.101604 0
1.313230 0.102764 0
1.254170 0.090850 0
1.204829 0.065554 0
1.171311 0.028106 0
1.164423 -0.016954 0
1.186470 -0.061535 0
1.236643 -0.096483 0
1.306486 -0.112086 0
1.379925 -0.102271 0
1.438761 -0.068937 0
1.468702 -0.023161 0
1.468808 0.022568 0
1.445536 0.061850 0
1.406447 0.092171 0
1.357755 0.112050 0
1.301315 0.124168 0
1.238635 0.128664 0
1.189103 0.089250 0
1.143936 0.014879 0
0.964241 0.068485 0
0.647426 0.181373 0
0.421639 0.244181 0
0.355840 0.275650 0
0.441111 0.209601 0
0.566525 0.098164 0
0.700298 -0.009555 0
0.802311 -0.081858 0
0.866013 -0.119856 0
0.875977 -0.180792 0
0.859569 -0.236633 0
0.895564 -0.241254 0
0.990180 -0.223533 0
1.077598 -0.201286 0
1.144274 -0.162862 0
1.187787 -0.112448 0
1.206455 -0.051618 0
1.199720 0.026173 0
1.165058 0.130929 0
1.095022 0.253405 0
1.044544 0.310719 0
1.062354 0.217180 0
1.004522 0.107427 0
0.877367 0.115810 0
0.750328 0.144676 0
0.646849 0.138672 0
0.549857 0.128807 0
0.470817 0.113872 0
0.425872 0.087085 0
0.410026 0.062721 0
0.399690 0.051835 0
0.386002 0.047490 0
0.368560 0.044256 0
0.350934 0.037480 0
0.337951 0.026023 0
0.332782 0.012226 0
0.334535 -0.004986 0
0.341755 -0.023276 0
0.352630 -0.042200 0
0.365549 -0.064048 0
0.380896 -0.087191 0
0.402106 -0.110314 0
0.432558 -0.130177 0
0.474185 -0.146154 0
0.527615 -0.157461 0
0.600617 -0.159730 0
0.689891 -0.146013 0
0.778105 -0.117010 0
0.853849 -0.078184 0
0.884153 -0.057058 0
1.000000 -0.000463 0
1.000533 -0.001456 0
1.001554 -0.002598 0
1.003029 -0.003910 0
1.004950 -0.005395 0
1.007317 -0.007056 0
1.010195 -0.008929 0
1.013638 -0.011096 0
1.017721 -0.013662 0
1.022559 -0.016773 0
1.028313 -0.020621 0
1.035199 -0.025452 0
1.043511 -0.031576 0
1.053653 -0.039380 0
1.066186 -0.049322 0
1.081885 -0.061916 0
1.101820 -0.077680 0
1.127576 -0.096926 0
1.161076 -0.119484 0
1.205114 -0.144162 0
1.262902 -0.166933 0
1.334033 -0.182718 0
1.428091 -0.176244 0
1.500559 -0.138829 0
1.542940 -0.087160 0
1.561695 -0.036909 0
1.563389 0.007481 0
1.552886 0.046398 0
1.532232 0.080955 0
1.498790 0.112766 0
1.450111 0.141754 0
1.385648 0.162711 0
1.310114 0.168300 0
1.230949 0.151655 0
1.164219 0.113294 0
1.112040 0.052611 0
1.101184 -0.024161 0
1.125803 -0.101636 0
1.186551 -0.164808 0
1.275183 -0.194357 0
1.371081 -0.178235 0
1.445452 -0.119253 0
1.487601 -0.039073 0
1.497378 0.036426 0
1.474588 0.095481 0
1.426900 0.136808 0
1.367624 0.164768 0
1.306393 0.184307 0
1.249721 0.184012 0
1.196682 0.168245 0
1.090331 0.232744 0
0.887392 0.354173 0
0.710198 0.380787 0
0.584046 0.314760 0
0.601729 0.196619 0
0.741950 0.046984 0
0.864002 -0.097795 0
0.971352 -0.185651 0
1.050734 -0.194021 0
1.106022 -0.155321 0
1.124205 -0.108908 0
1.090998 -0.133914 0
1.045246 -0.231188 0
1.027490 -0.287296 0
1.033607 -0.262313 0
1.050505 -0.202524 0
1.068945 -0.129629 0
1.081531 -0.047069 0
1.060159 0.047513 0
1.020487 0.170698 0
1.003804 0.286863 0
0.990716 0.305670 0
0.950862 0.272162 0
0.857097 0.255616 0
0.756302 0.230642 0
0.646635 0.210045 0
0.529358 0.216752 0
0.441811 0.218046 0
0.403317 0.174012 0
0.409651 0.105489 0
0.446502 0.061828 0
0.465235 0.053758 0
0.463249 0.057070 0
0.453732 0.056427 0
0.445248 0.047409 0
0.441196 0.029911 0
0.447764 0.007742 0
0.467229 -0.014747 0
0.495099 -0.034244 0
0.529088 -0.051125 0
0.562405 -0.068991 0
0.587313 -0.089438 0
0.595759 -0.112551 0
0.588193 -0.139178 0
0.572034 -0.167397 0
0.551242 -0.199406 0
0.550845 -0.229637 0
0.585647 -0.235813 0
0.643518 -0.212951 0
0.734085 -0.142244 0
0.763578 -0.089344 0
1.000000 -0.000700 0
1.000404 -0.002154 0
1.001226 -0.003743 0
1.002476 -0.005493 0
1.004139 -0.007411 0
1.006201 -0.009524 0
1.008683 -0.011890 0
1.011620 -0.014604 0
1.015063 -0.017800 0
1.019088 -0.021658 0
1.023808 -0.026418 0
1.029376 -0.032383 0
1.035995 -0.039953 0
1.043962 -0.049647 0
1.053730 -0.062119 0
1.065983 -0.078165 0
1.081640 -0.098814 0
1.102830 -0.124929 0
1.131425 -0.157291 0
1.172714 -0.195959 0
1.232595 -0.235119 0
1.312982 -0.277330 0
1.465849 -0.272799 0
1.559338 -0.200879 0
1.598810 -0.117720 0
1.609533 -0.045289 0
1.604232 0.013894 0
1.588765 0.061832 0
1.571678 0.106702 0
1.547636 0.155014 0
1.495921 0.203487 0
1.415049 0.241597 0
1.308957 0.257460 0
1.185958 0.236743 0
1.134887 0.184460 0
1.040068 0.091139 0
1.013796 -0.030719 0
1.017130 -0.146904 0
1.049797 -0.245864 0
1.120433 -0.296618 0
1.222296 -0.272541 0
1.320031 -0.185458 0
1.389534 -0.075088 0
1.438697 0.035580 0
1.456775 0.132328 0
1.439051 0.199135 0
1.392328 0.232557 0
1.327266 0.242070 0
1.258189 0.238375 0
1.182470 0.248640 0
1.091145 0.324169 0
1.028145 0.448619 0
0.972112 0.484719 0
0.919768 0.352650 0
0.905844 0.117746 0
0.981880 -0.052670 0
1.044716 -0.131237 0
0.908952 -0.196286 0
0.752183 -0.216528 0
0.681868 -0.193326 0
0.698994 -0.165767 0
0.768040 -0.157673 0
0.816839 -0.177745 0
0.821841 -0.211894 0
0.829795 -0.224300 0
0.852655 -0.198199 0
0.875155 -0.143473 0
0.882737 -0.042831 0
0.880990 0.087218 0
0.891974 0.187285 0
0.923147 0.283178 0
0.928632 0.363662 0
0.870988 0.350800 0
0.782213 0.301989 0
0.657117 0.326274 0
0.536264 0.371622 0
0.498380 0.343498 0
0.571823 0.254850 0
0.688123 0.146035 0
0.737723 0.043904 0
0.689419 0.007140 0
0.630403 0.035092 0
0.594085 0.058997 0
0.565220 0.062261 0
0.535487 0.050021 0
0.513881 0.023511 0
0.505604 -0.013802 0
0.509923 -0.052315 0
0.529039 -0.085130 0
0.565422 -0.109500 0
0.622240 -0.122267 0
0.693095 -0.120539 0
0.768046 -0.111188 0
0.829279 -0.106446 0
0.860328 -0.109197 0
0.857783 -0.136266 0
0.813275 -0.194129 0
0.736822 -0.238680 0
0.673407 -0.265442 0
0.690895 -0.198237 0
0.704797 -0.116580 0
1.000000 -0.000877 0
1.000270 -0.002694 0
1.000873 -0.004676 0
1.001904 -0.006829 0
1.003309 -0.009125 0
1.005019 -0.011605 0
1.007037 -0.014354 0
1.009386 -0.017481 0
1.012078 -0.021135 0
1.015148 -0.025524 0
1.018660 -0.030915 0
1.022688 -0.037644 0
1.027302 -0.046168 0
1.032637 -0.057120 0
1.038948 -0.071348 0
1.046840 -0.089832 0
1.056125 -0.114533 0
1.070927 -0.146716 0
1.089625 -0.189373 0
1.123431 -0.245337 0
1.175486 -0.307206 0
1.263200 -0.415977 0
1.536333 -0.422604 0
1.625240 -0.271796 0
1.632000 -0.137360 0
1.620369 -0.042335 0
1.604367 0.028245 0
1.585120 0.078948 0
1.576114 0.122080 0
1.589203 0.188519 0
1.564674 0.274337 0
1.480305 0.349672 0
1.358399 0.397388 0
1.217716 0.325722 0
0.961655 0.259182 0
0.650128 0.173699 0
0.806042 -0.001226 0
0.798928 -0.137638 0
0.654492 -0.268112 0
0.601265 -0.366858 0
0.690576 -0.377835 0
0.873190 -0.286493 0
1.055140 -0.157740 0
1.182304 -0.030815 0
1.252444 0.095127 0
1.300584 0.201255 0
1.325340 0.276552 0
1.310184 0.318446 0
1.260916 0.328807 0
1.188234 0.335289 0
1.111249 0.387070 0
1.064859 0.473207 0
1.064536 0.489165 0
1.063941 0.381028 0
1.036816 0.134508 0
0.930684 -0.091888 0
0.713538 -0.024867 0
0.488428 0.106883 0
0.319444 0.033064 0
0.235779 -0.102132 0
0.234189 -0.195080 0
0.300786 -0.251757 0
0.402455 -0.284988 0
0.497623 -0.300252 0
0.567387 -0.293126 0
0.617438 -0.247883 0
0.657112 -0.159709 0
0.685641 -0.052903 0
0.733616 0.038276 0
0.790169 0.128543 0
0.817440 0.250208 0
0.840346 0.357830 0
0.836953 0.418582 0
0.761356 0.469490 0
0.678882 0.476594 0
0.679786 0.368784 0
0.745955 0.181196 0
0.851102 0.028306 0
0.953423 0.008115 0
0.930429 0.104197 0
0.791850 0.169152 0
0.678714 0.149095 0
0.647246 0.122257 0
0.660773 0.115029 0
0.671809 0.098752 0
0.653742 0.059799 0
0.606726 0.011705 0
0.551484 -0.038177 0
0.509989 -0.089738 0
0.493073 -0.144321 0
0.511544 -0.196658 0
0.570070 -0.235239 0
0.661187 -0.248729 0
0.767511 -0.231455 0
0.871417 -0.195896 0
0.961094 -0.152346 0
1.000357 -0.108670 0
0.976803 -0.095939 0
0.924578 -0.167018 0
0.835934 -0.173628 0
0.819168 -0.118350 0
1.000000 -0.000980 0
1.000147 -0.003040 0
1.000438 -0.005383 0
1.001225 -0.007935 0
1.002393 -0.010532 0
1.003751 -0.013257 0
1.005281 -0.016262 0
1.007011 -0.019650 0
1.008894 -0.023566 0
1.010922 -0.028246 0
1.013135 -0.033963 0
1.015537 -0.041030 0
1.018001 -0.049908 0
1.020523 -0.061299 0
1.022705 -0.076328 0
1.026398 -0.095347 0
1.025918 -0.122906 0
1.035495 -0.158435 0
1.036168 -0.209800 0
1.058632 -0.281824 0
1.076510 -0.374894 0
1.207264 -0.638183 0
1.542872 -0.634843 0
1.468081 -0.296551 0
1.371838 -0.112854 0
1.334140 -0.017661 0
1.316429 0.049139 0
1.307817 0.090081 0
1.321856 0.102615 0
1.409119 0.166451 0
1.503154 0.312382 0
1.493615 0.447869 0
1.364023 0.520046 0
1.217726 0.633484 0
1.049913 0.752046 0
0.969590 0.246749 0
0.550978 -0.179522 0
0.248634 0.004644 0
0.078265 -0.048203 0
-0.005783 -0.332703 0
0.044650 -0.544467 0
0.239376 -0.550023 0
0.528200 -0.384204 0
0.777736 -0.161725 0
0.952117 0.014047 0
1.066066 0.126239 0
1.129301 0.222957 0
1.172034 0.306494 0
1.191419 0.360325 0
1.171583 0.398307 0
1.126050 0.447545 0
1.098469 0.495332 0
1.111578 0.485636 0
1.135481 0.380371 0
1.134061 0.251004 0
0.859680 0.270608 0
0.479140 0.311020 0
0.367534 0.197808 0
0.339146 0.036122 0
0.278244 -0.108070 0
0.232480 -0.230773 0
0.242971 -0.325939 0
0.297651 -0.374580 0
0.370820 -0.376825 0
0.437207 -0.344115 0
0.488054 -0.287923 0
0.533639 -0.211676 0
0.594075 -0.119333 0
0.664736 -0.017307 0
0.716735 0.103463 0
0.750741 0.233003 0
0.788537 0.344151 0
0.814350 0.429792 0
0.848861 0.460062 0
0.919205 0.407845 0
0.997734 0.304552 0
1.033935 0.172185 0
1.015672 0.047386 0
0.921033 0.066711 0
0.750524 0.205479 0
0.611167 0.258859 0
0.542894 0.179700 0
0.556202 0.076942 0
0.617375 0.037703 0
0.683579 0.057057 0
0.726770 0.088599 0
0.732594 0.088460 0
0.710167 0.044426 0
0.682046 -0.026714 0
0.667981 -0.111050 0
0.675622 -0.199258 0
0.706914 -0.270176 0
0.744595 -0.308624 0
0.778458 -0.316670 0
0.813216 -0.302774 0
0.854810 -0.265200 0
0.913226 -0.209832 0
0.983468 -0.162895 0
1.028220 -0.124568 0
0.983266 -0.092821 0
0.971293 -0.085731 0
1.000000 -0.001034 0
1.000000 -0.003144 0
1.000207 -0.005759 0
1.000605 -0.008789 0
1.001372 -0.011657 0
1.002381 -0.014499 0
1.003442 -0.017619 0
1.004605 -0.021099 0
1.005670 -0.025050 0
1.006594 -0.029770 0
1.007512 -0.035536 0
1.008398 -0.042515 0
1.008715 -0.051159 0
1.010298 -0.061830 0
1.005024 -0.077229 0
1.008040 -0.093050 0
0.998042 -0.123634 0
1.002874 -0.156971 0
0.983040 -0.212516 0
0.992888 -0.285684 0
0.942989 -0.455843 0
1.062591 -0.882344 0
0.751418 -0.582659 0
0.000502 0.000000 0
-0.001953 0.000000 0
0.531633 0.016493 0
0.536151 0.054564 0
0.403822 0.073517 0
1.027711 0.020774 0
0.657551 0.007218 0
0.801687 0.189838 0
1.132036 0.488799 0
1.197338 0.673274 0
1.069523 0.639829 0
0.962337 0.507315 0
0.904940 0.672633 0
0.365785 0.719728 0
-0.082557 0.335073 0
-0.081752 -0.013697 0
-0.071841 -0.333245 0
-0.093108 -0.622995 0
-0.060953 -0.770044 0
0.115886 -0.696101 0
0.396194 -0.454733 0
0.655830 -0.193204 0
0.842145 0.024070 0
0.959577 0.170584 0
1.036587 0.256328 0
1.076768 0.329259 0
1.095835 0.400657 0
1.109740 0.460183 0
1.139228 0.487680 0
1.198451 0.452154 0
1.249699 0.358545 0
1.156070 0.410309 0
0.886438 0.563033 0
0.763704 0.467280 0
0.680031 0.246879 0
0.545693 0.122354 0
0.407994 0.004535 0
0.307256 -0.159806 0
0.263497 -0.316929 0
0.264749 -0.412836 0
0.292534 -0.439806 0
0.341832 -0.410359 0
0.407767 -0.344314 0
0.472873 -0.265729 0
0.533985 -0.183999 0
0.594761 -0.084383 0
0.653902 0.042539 0
0.719057 0.178407 0
0.788972 0.294223 0
0.868513 0.358260 0
0.968500 0.364637 0
1.058955 0.327723 0
1.115409 0.254056 0
1.131322 0.163261 0
1.076211 0.141210 0
0.911246 0.273265 0
0.755933 0.414066 0
0.687539 0.376785 0
0.662017 0.204064 0
0.624869 0.047781 0
0.572696 -0.012344 0
0.553880 -0.010639 0
0.588799 0.010789 0
0.637911 0.028314 0
0.680868 0.012375 0
0.722247 -0.047547 0
0.788034 -0.137891 0
0.873711 -0.235586 0
0.945223 -0.304206 0
1.003366 -0.320268 0
1.049029 -0.300070 0
1.068653 -0.272241 0
1.051449 -0.252350 0
1.018159 -0.237322 0
0.995084 -0.210928 0
0.990503 -0.166810 0
1.006296 -0.116695 0
1.011493 -0.094244 0
1.000000 -0.000990 0
0.999855 -0.003259 0
1.000012 -0.005992 0
1.000106 -0.009105 0
1.000348 -0.012312 0
1.001005 -0.015332 0
1.001519 -0.018492 0
1.002339 -0.021883 0
1.002642 -0.025560 0
1.002330 -0.030094 0
1.002850 -0.035772 0
1.001290 -0.042238 0
1.002144 -0.051813 0
0.996295 -0.057613 0
0.997014 -0.074074 0
0.987176 -0.088370 0
0.987055 -0.117745 0
0.961252 -0.143437 0
0.954617 -0.199819 0
0.898565 -0.241778 0
0.862505 -0.444601 0
0.651618 -0.547384 0
0.000000 -0.002900 0
-0.640563 0.210421 0
-0.557585 0.000000 0
0.000000 0.000000 0
0.011252 0.171705 0
0.069345 -0.401483 0
0.241170 -0.151117 0
0.234545 0.392471 0
0.484486 -0.162107 0
0.693172 0.052216 0
0.734238 0.582556 0
0.587986 0.868481 0
0.297914 0.916627 0
-0.095630 0.843299 0
0.024886 0.807974 0
0.121901 0.452179 0
0.193661 -0.058921 0
0.252281 -0.321348 0
0.258491 -0.555356 0
0.194460 -0.759017 0
0.133582 -0.841352 0
0.225722 -0.701670 0
0.424960 -0.431904 0
0.631444 -0.177509 0
0.813373 0.028514 0
0.924069 0.189303 0
0.978428 0.301077 0
1.024805 0.365335 0
1.086635 0.404152 0
1.164440 0.406622 0
1.221947 0.375165 0
1.166851 0.422752 0
0.972556 0.614266 0
0.872485 0.662975 0
0.862791 0.517428 0
0.753432 0.415819 0
0.636365 0.308159 0
0.574171 0.130369 0
0.511316 -0.086276 0
0.426729 -0.283432 0
0.380389 -0.403616 0
0.333720 -0.453906 0
0.318048 -0.459346 0
0.352115 -0.418963 0
0.425228 -0.337893 0
0.504492 -0.241220 0
0.576839 -0.137223 0
0.639414 -0.020832 0
0.707794 0.097934 0
0.793587 0.194697 0
0.900109 0.250266 0
0.998647 0.269621 0
1.073316 0.260939 0
1.113964 0.232188 0
1.106699 0.211385 0
1.037101 0.267464 0
0.951427 0.386993 0
0.945842 0.429190 0
0.995558 0.352778 0
1.026655 0.242373 0
0.996242 0.166267 0
0.929353 0.108697 0
0.866501 0.040959 0
0.818560 0.004572 0
0.795931 -0.003605 0
0.813313 -0.039904 0
0.868304 -0.133874 0
0.943852 -0.262509 0
1.012293 -0.356441 0
1.059716 -0.399825 0
1.106215 -0.412424 0
1.160713 -0.381951 0
1.216049 -0.305188 0
1.246217 -0.214700 0
1.233465 -0.153460 0
1.182292 -0.135233 0
1.124280 -0.135774 0
1.088291 -0.113805 0
1.076733 -0.094007 0
1.000000 -0.000898 0
0.999817 -0.003169 0
0.999715 -0.006014 0
0.999751 -0.009130 0
0.999731 -0.012561 0
0.999940 -0.015674 0
0.999703 -0.018959 0
0.999942 -0.022227 0
0.999785 -0.025046 0
0.999306 -0.029983 0
0.998370 -0.034501 0
0.996294 -0.041815 0
0.994351 -0.046168 0
0.988683 -0.056705 0
0.988110 -0.068115 0
0.973435 -0.083096 0
0.971595 -0.097714 0
0.935314 -0.124537 0
0.924129 -0.149834 0
0.837738 -0.193577 0
0.804483 -0.208901 0
0.462702 -0.110727 0
0.326918 -0.021926 0
0.000000 0.000000 0
0.000000 0.000000 0
0.000000 0.000000 0
0.000000 0.000000 0
0.191729 -0.136380 0
-0.395767 -0.144429 0
0.224644 -0.236101 0
0.232299 -0.268791 0
0.229753 0.239044 0
0.258927 0.778457 0
0.037959 1.076150 0
-0.096183 1.190929 0
-0.273978 0.945659 0
-0.048696 0.502196 0
0.243706 0.166296 0
0.285857 -0.144078 0
0.350203 -0.398077 0
0.456038 -0.565175 0
0.537077 -0.645136 0
0.502110 -0.727364 0
0.398424 -0.746112 0
0.405926 -0.598925 0
0.524600 -0.364343 0
0.681975 -0.122042 0
0.818566 0.091273 0
0.929460 0.228522 0
1.002908 0.292451 0
1.070454 0.320549 0
1.096470 0.352368 0
1.036194 0.449743 0
0.903027 0.607937 0
0.808875 0.704675 0
0.852221 0.672799 0
0.853236 0.586333 0
0.832265 0.473305 0
0.854418 0.301616 0
0.924318 0.129585 0
0.985643 -0.012363 0