# vtk DataFile Version 2.0
generated by CFD-lab course output (written by Tobias Neckel) 
ASCII

DATASET STRUCTURED_GRID
DIMENSIONS  101 21 1 
POINTS 2121 float

0.000000 0.000000 0
0.100000 0.000000 0
0.200000 0.000000 0
0.300000 0.000000 0
0.400000 0.000000 0
0.500000 0.000000 0
0.600000 0.000000 0
0.700000 0.000000 0
0.800000 0.000000 0
0.900000 0.000000 0
1.000000 0.000000 0
1.100000 0.000000 0
1.200000 0.000000 0
1.300000 0.000000 0
1.400000 0.000000 0
1.500000 0.000000 0
1.600000 0.000000 0
1.700000 0.000000 0
1.800000 0.000000 0
1.900000 0.000000 0
2.000000 0.000000 0
2.100000 0.000000 0
2.200000 0.000000 0
2.300000 0.000000 0
2.400000 0.000000 0
2.500000 0.000000 0
2.600000 0.000000 0
2.700000 0.000000 0
2.800000 0.000000 0
2.900000 0.000000 0
3.000000 0.000000 0
3.100000 0.000000 0
3.200000 0.000000 0
3.300000 0.000000 0
3.400000 0.000000 0
3.500000 0.000000 0
3.600000 0.000000 0
3.700000 0.000000 0
3.800000 0.000000 0
3.900000 0.000000 0
4.000000 0.000000 0
4.100000 0.000000 0
4.200000 0.000000 0
4.300000 0.000000 0
4.400000 0.000000 0
4.500000 0.000000 0
4.600000 0.000000 0
4.700000 0.000000 0
4.800000 0.000000 0
4.900000 0.000000 0
5.000000 0.000000 0
5.100000 0.000000 0
5.200000 0.000000 0
5.300000 0.000000 0
5.400000 0.000000 0
5.500000 0.000000 0
5.600000 0.000000 0
5.700000 0.000000 0
5.800000 0.000000 0
5.900000 0.000000 0
6.000000 0.000000 0
6.100000 0.000000 0
6.200000 0.000000 0
6.300000 0.000000 0
6.400000 0.000000 0
6.500000 0.000000 0
6.600000 0.000000 0
6.700000 0.000000 0
6.800000 0.000000 0
6.900000 0.000000 0
7.000000 0.000000 0
7.100000 0.000000 0
7.200000 0.000000 0
7.300000 0.000000 0
7.400000 0.000000 0
7.500000 0.000000 0
7.600000 0.000000 0
7.700000 0.000000 0
7.800000 0.000000 0
7.900000 0.000000 0
8.000000 0.000000 0
8.100000 0.000000 0
8.200000 0.000000 0
8.300000 0.000000 0
8.400000 0.000000 0
8.500000 0.000000 0
8.600000 0.000000 0
8.700000 0.000000 0
8.800000 0.000000 0
8.900000 0.000000 0
9.000000 0.000000 0
9.100000 0.000000 0
9.200000 0.000000 0
9.300000 0.000000 0
9.400000 0.000000 0
9.500000 0.000000 0
9.600000 0.000000 0
9.700000 0.000000 0
9.800000 0.000000 0
9.900000 0.000000 0
10.000000 0.000000 0
0.000000 0.100000 0
0.100000 0.100000 0
0.200000 0.100000 0
0.300000 0.100000 0
0.400000 0.100000 0
0.500000 0.100000 0
0.600000 0.100000 0
0.700000 0.100000 0
0.800000 0.100000 0
0.900000 0.100000 0
1.000000 0.100000 0
1.100000 0.100000 0
1.200000 0.100000 0
1.300000 0.100000 0
1.400000 0.100000 0
1.500000 0.100000 0
1.600000 0.100000 0
1.700000 0.100000 0
1.800000 0.100000 0
1.900000 0.100000 0
2.000000 0.100000 0
2.100000 0.100000 0
2.200000 0.100000 0
2.300000 0.100000 0
2.400000 0.100000 0
2.500000 0.100000 0
2.600000 0.100000 0
2.700000 0.100000 0
2.800000 0.100000 0
2.900000 0.100000 0
3.000000 0.100000 0
3.100000 0.100000 0
3.200000 0.100000 0
3.300000 0.100000 0
3.400000 0.100000 0
3.500000 0.100000 0
3.600000 0.100000 0
3.700000 0.100000 0
3.800000 0.100000 0
3.900000 0.100000 0
4.000000 0.100000 0
4.100000 0.100000 0
4.200000 0.100000 0
4.300000 0.100000 0
4.400000 0.100000 0
4.500000 0.100000 0
4.600000 0.100000 0
4.700000 0.100000 0
4.800000 0.100000 0
4.900000 0.100000 0
5.000000 0.100000 0
5.100000 0.100000 0
5.200000 0.100000 0
5.300000 0.100000 0
5.400000 0.100000 0
5.500000 0.100000 0
5.600000 0.100000 0
5.700000 0.100000 0
5.800000 0.100000 0
5.900000 0.100000 0
6.000000 0.100000 0
6.100000 0.100000 0
6.200000 0.100000 0
6.300000 0.100000 0
6.400000 0.100000 0
6.500000 0.100000 0
6.600000 0.100000 0
6.700000 0.100000 0
6.800000 0.100000 0
6.900000 0.100000 0
7.000000 0.100000 0
7.100000 0.100000 0
7.200000 0.100000 0
7.300000 0.100000 0
7.400000 0.100000 0
7.500000 0.100000 0
7.600000 0.100000 0
7.700000 0.100000 0
7.800000 0.100000 0
7.900000 0.100000 0
8.000000 0.100000 0
8.100000 0.100000 0
8.200000 0.100000 0
8.300000 0.100000 0
8.400000 0.100000 0
8.500000 0.100000 0
8.600000 0.100000 0
8.700000 0.100000 0
8.800000 0.100000 0
8.900000 0.100000 0
9.000000 0.100000 0
9.100000 0.100000 0
9.200000 0.100000 0
9.300000 0.100000 0
9.400000 0.100000 0
9.500000 0.100000 0
9.600000 0.100000 0
9.700000 0.100000 0
9.800000 0.100000 0
9.900000 0.100000 0
10.000000 0.100000 0
0.000000 0.200000 0
0.100000 0.200000 0
0.200000 0.200000 0
0.300000 0.200000 0
0.400000 0.200000 0
0.500000 0.200000 0
0.600000 0.200000 0
0.700000 0.200000 0
0.800000 0.200000 0
0.900000 0.200000 0
1.000000 0.200000 0
1.100000 0.200000 0
1.200000 0.200000 0
1.300000 0.200000 0
1.400000 0.200000 0
1.500000 0.200000 0
1.600000 0.200000 0
1.700000 0.200000 0
1.800000 0.200000 0
1.900000 0.200000 0
2.000000 0.200000 0
2.100000 0.200000 0
2.200000 0.200000 0
2.300000 0.200000 0
2.400000 0.200000 0
2.500000 0.200000 0
2.600000 0.200000 0
2.700000 0.200000 0
2.800000 0.200000 0
2.900000 0.200000 0
3.000000 0.200000 0
3.100000 0.200000 0
3.200000 0.200000 0
3.300000 0.200000 0
3.400000 0.200000 0
3.500000 0.200000 0
3.600000 0.200000 0
3.700000 0.200000 0
3.800000 0.200000 0
3.900000 0.200000 0
4.000000 0.200000 0
4.100000 0.200000 0
4.200000 0.200000 0
4.300000 0.200000 0
4.400000 0.200000 0
4.500000 0.200000 0
4.600000 0.200000 0
4.700000 0.200000 0
4.800000 0.200000 0
4.900000 0.200000 0
5.000000 0.200000 0
5.100000 0.200000 0
5.200000 0.200000 0
5.300000 0.200000 0
5.400000 0.200000 0
5.500000 0.200000 0
5.600000 0.200000 0
5.700000 0.200000 0
5.800000 0.200000 0
5.900000 0.200000 0
6.000000 0.200000 0
6.100000 0.200000 0
6.200000 0.200000 0
6.300000 0.200000 0
6.400000 0.200000 0
6.500000 0.200000 0
6.600000 0.200000 0
6.700000 0.200000 0
6.800000 0.200000 0
6.900000 0.200000 0
7.000000 0.200000 0
7.100000 0.200000 0
7.200000 0.200000 0
7.300000 0.200000 0
7.400000 0.200000 0
7.500000 0.200000 0
7.600000 0.200000 0
7.700000 0.200000 0
7.800000 0.200000 0
7.900000 0.200000 0
8.000000 0.200000 0
8.100000 0.200000 0
8.200000 0.200000 0
8.300000 0.200000 0
8.400000 0.200000 0
8.500000 0.200000 0
8.600000 0.200000 0
8.700000 0.200000 0
8.800000 0.200000 0
8.900000 0.200000 0
9.000000 0.200000 0
9.100000 0.200000 0
9.200000 0.200000 0
9.300000 0.200000 0
9.400000 0.200000 0
9.500000 0.200000 0
9.600000 0.200000 0
9.700000 0.200000 0
9.800000 0.200000 0
9.900000 0.200000 0
10.000000 0.200000 0
0.000000 0.300000 0
0.100000 0.300000 0
0.200000 0.300000 0
0.300000 0.300000 0
0.400000 0.300000 0
0.500000 0.300000 0
0.600000 0.300000 0
0.700000 0.300000 0
0.800000 0.300000 0
0.900000 0.300000 0
1.000000 0.300000 0
1.100000 0.300000 0
1.200000 0.300000 0
1.300000 0.300000 0
1.400000 0.300000 0
1.500000 0.300000 0
1.600000 0.300000 0
1.700000 0.300000 0
1.800000 0.300000 0
1.900000 0.300000 0
2.000000 0.300000 0
2.100000 0.300000 0
2.200000 0.300000 0
2.300000 0.300000 0
2.400000 0.300000 0
2.500000 0.300000 0
2.600000 0.300000 0
2.700000 0.300000 0
2.800000 0.300000 0
2.900000 0.300000 0
3.000000 0.300000 0
3.100000 0.300000 0
3.200000 0.300000 0
3.300000 0.300000 0
3.400000 0.300000 0
3.500000 0.300000 0
3.600000 0.300000 0
3.700000 0.300000 0
3.800000 0.300000 0
3.900000 0.300000 0
4.000000 0.300000 0
4.100000 0.300000 0
4.200000 0.300000 0
4.300000 0.300000 0
4.400000 0.300000 0
4.500000 0.300000 0
4.600000 0.300000 0
4.700000 0.300000 0
4.800000 0.300000 0
4.900000 0.300000 0
5.000000 0.300000 0
5.100000 0.300000 0
5.200000 0.300000 0
5.300000 0.300000 0
5.400000 0.300000 0
5.500000 0.300000 0
5.600000 0.300000 0
5.700000 0.300000 0
5.800000 0.300000 0
5.900000 0.300000 0
6.000000 0.300000 0
6.100000 0.300000 0
6.200000 0.300000 0
6.300000 0.300000 0
6.400000 0.300000 0
6.500000 0.300000 0
6.600000 0.300000 0
6.700000 0.300000 0
6.800000 0.300000 0
6.900000 0.300000 0
7.000000 0.300000 0
7.100000 0.300000 0
7.200000 0.300000 0
7.300000 0.300000 0
7.400000 0.300000 0
7.500000 0.300000 0
7.600000 0.300000 0
7.700000 0.300000 0
7.800000 0.300000 0
7.900000 0.300000 0
8.000000 0.300000 0
8.100000 0.300000 0
8.200000 0.300000 0
8.300000 0.300000 0
8.400000 0.300000 0
8.500000 0.300000 0
8.600000 0.300000 0
8.700000 0.300000 0
8.800000 0.300000 0
8.900000 0.300000 0
9.000000 0.300000 0
9.100000 0.300000 0
9.200000 0.300000 0
9.300000 0.300000 0
9.400000 0.300000 0
9.500000 0.300000 0
9.600000 0.300000 0
9.700000 0.300000 0
9.800000 0.300000 0
9.900000 0.300000 0
10.000000 0.300000 0
0.000000 0.400000 0
0.100000 0.400000 0
0.200000 0.400000 0
0.300000 0.400000 0
0.400000 0.400000 0
0.500000 0.400000 0
0.600000 0.400000 0
0.700000 0.400000 0
0.800000 0.400000 0
0.900000 0.400000 0
1.000000 0.400000 0
1.100000 0.400000 0
1.200000 0.400000 0
1.300000 0.400000 0
1.400000 0.400000 0
1.500000 0.400000 0
1.600000 0.400000 0
1.700000 0.400000 0
1.800000 0.400000 0
1.900000 0.400000 0
2.000000 0.400000 0
2.100000 0.400000 0
2.200000 0.400000 0
2.300000 0.400000 0
2.400000 0.400000 0
2.500000 0.400000 0
2.600000 0.400000 0
2.700000 0.400000 0
2.800000 0.400000 0
2.900000 0.400000 0
3.000000 0.400000 0
3.100000 0.400000 0
3.200000 0.400000 0
3.300000 0.400000 0
3.400000 0.400000 0
3.500000 0.400000 0
3.600000 0.400000 0
3.700000 0.400000 0
3.800000 0.400000 0
3.900000 0.400000 0
4.000000 0.400000 0
4.100000 0.400000 0
4.200000 0.400000 0
4.300000 0.400000 0
4.400000 0.400000 0
4.500000 0.400000 0
4.600000 0.400000 0
4.700000 0.400000 0
4.800000 0.400000 0
4.900000 0.400000 0
5.000000 0.400000 0
5.100000 0.400000 0
5.200000 0.400000 0
5.300000 0.400000 0
5.400000 0.400000 0
5.500000 0.400000 0
5.600000 0.400000 0
5.700000 0.400000 0
5.800000 0.400000 0
5.900000 0.400000 0
6.000000 0.400000 0
6.100000 0.400000 0
6.200000 0.400000 0
6.300000 0.400000 0
6.400000 0.400000 0
6.500000 0.400000 0
6.600000 0.400000 0
6.700000 0.400000 0
6.800000 0.400000 0
6.900000 0.400000 0
7.000000 0.400000 0
7.100000 0.400000 0
7.200000 0.400000 0
7.300000 0.400000 0
7.400000 0.400000 0
7.500000 0.400000 0
7.600000 0.400000 0
7.700000 0.400000 0
7.800000 0.400000 0
7.900000 0.400000 0
8.000000 0.400000 0
8.100000 0.400000 0
8.200000 0.400000 0
8.300000 0.400000 0
8.400000 0.400000 0
8.500000 0.400000 0
8.600000 0.400000 0
[...]
POINT_DATA 2121 

VECTORS velocity float
0.500000 0.000000 0
0.000000 0.000000 0
0.000000 0.000000 0
0.000008 0.000000 0
0.000014 0.000000 0
0.000018 0.000000 0
0.000023 0.000000 0
0.000028 0.000000 0
0.000024 0.000000 0
0.000006 0.000000 0
-0.000008 0.000000 0
-0.000018 0.000000 0
-0.000028 0.000000 0
-0.000043 0.000000 0
-0.000063 0.000000 0
-0.000088 0.000000 0
-0.000117 0.000000 0
-0.000153 0.000000 0
-0.000197 0.000000 0
-0.000254 0.000000 0
-0.000329 0.000000 0
-0.000434 0.000000 0
-0.000587 0.000000 0
-0.000807 0.000000 0
-0.001087 0.000000 0
-0.001378 0.000000 0
-0.001712 0.000000 0
-0.002071 0.000000 0
-0.002471 0.000000 0
-0.002799 0.000000 0
-0.002924 0.000000 0
-0.002512 0.000000 0
-0.001305 0.000000 0
0.000513 0.000000 0
0.002435 0.000000 0
0.004170 0.000000 0
0.005622 0.000000 0
0.006586 0.000000 0
0.006426 0.000000 0
0.006991 0.000000 0
0.015053 0.000000 0
0.004631 0.000000 0
0.009718 0.000000 0
0.009311 0.000000 0
-0.002110 0.000000 0
-0.008079 0.000000 0
-0.014915 0.000000 0
-0.017157 0.000000 0
-0.015533 0.000000 0
-0.021028 0.000000 0
-0.021190 0.000000 0
-0.019426 0.000000 0
-0.014517 0.000000 0
-0.005725 0.000000 0
0.005445 0.000000 0
0.014204 0.000000 0
0.020364 0.000000 0
0.025651 0.000000 0
0.027803 0.000000 0
0.009635 0.000000 0
0.010203 0.000000 0
0.006715 0.000000 0
-0.000755 0.000000 0
-0.005945 0.000000 0
-0.008581 0.000000 0
-0.008741 0.000000 0
-0.008212 0.000000 0
-0.011981 0.000000 0
-0.012468 0.000000 0
-0.011227 0.000000 0
-0.009480 0.000000 0
-0.007651 0.000000 0
-0.005741 0.000000 0
-0.003341 0.000000 0
0.000016 0.000000 0
0.004192 0.000000 0
0.008502 0.000000 0
0.011205 0.000000 0
0.011268 0.000000 0
0.008795 0.000000 0
0.004376 0.000000 0
0.000966 0.000000 0
-0.000417 0.000000 0
-0.002776 0.000000 0
-0.004453 0.000000 0
-0.004593 0.000000 0
-0.004437 0.000000 0
-0.003740 0.000000 0
-0.002305 0.000000 0
-0.000559 0.000000 0
0.001419 0.000000 0
0.003761 0.000000 0
0.006267 0.000000 0
0.008013 0.000000 0
0.008670 0.000000 0
0.012459 0.000000 0
0.015774 0.000000 0
0.007128 0.000000 0
0.003413 0.000000 0
0.003570 0.000000 0
0.003214 0.000000 0
1.000000 0.000339 0
0.999973 0.000789 0
0.999981 0.000868 0
1.000125 0.000758 0
1.000476 0.000544 0
1.001114 0.000221 0
1.002135 -0.000205 0
1.003666 -0.000800 0
1.005887 -0.001893 0
1.009053 -0.003134 0
1.013322 -0.004345 0
1.018991 -0.005966 0
1.026445 -0.008055 0
1.036178 -0.010731 0
1.048808 -0.014114 0
1.065093 -0.018313 0
1.085916 -0.023402 0
1.112248 -0.029344 0
1.145018 -0.035887 0
1.184842 -0.042420 0
1.231605 -0.047821 0
1.283644 -0.050533 0
1.337542 -0.048800 0
1.386697 -0.042141 0
1.426056 -0.031957 0
1.453264 -0.020104 0
1.466952 -0.008994 0
1.469799 -0.000868 0
1.465784 0.003119 0
1.460073 0.002424 0
1.458759 -0.001803 0
1.466205 -0.004925 0
1.477392 -0.001096 0
1.479871 0.011319 0
1.464062 0.028825 0
1.428804 0.047386 0
1.374952 0.064766 0
1.305490 0.077300 0
1.225566 0.083329 0
1.139317 0.113095 0
1.047412 0.138065 0
0.944966 0.094380 0
0.722261 0.086743 0
0.542347 0.088449 0
0.509500 0.015868 0
0.523734 -0.053059 0
0.578062 -0.108696 0
0.724033 -0.136553 0
0.907180 -0.140759 0
1.072200 -0.155456 0
1.231676 -0.162544 0
1.378085 -0.144847 0
1.500486 -0.104500 0
1.584487 -0.040716 0
1.607557 0.036037 0
1.563379 0.103464 0
1.459143 0.157273 0
1.312684 0.200681 0
1.150989 0.186745 0
0.976435 0.098688 0
0.790044 0.050649 0
0.689655 0.037794 0
0.669730 -0.008497 0
0.693253 -0.049416 0
0.746031 -0.070520 0
0.829157 -0.072301 0
0.936211 -0.073883 0
1.039813 -0.090267 0
1.142757 -0.098969 0
1.235653 -0.089438 0
1.311685 -0.073097 0
1.369432 -0.055054 0
1.409366 -0.036258 0
1.430815 -0.014945 0
1.431046 0.010610 0
1.409720 0.039283 0
1.370504 0.066300 0
1.318308 0.083921 0
1.260083 0.085967 0
1.200519 0.070777 0
1.154439 0.041203 0
1.148873 0.014984 0
1.145192 -0.001349 0
1.140100 -0.022868 0
1.168750 -0.044622 0
1.215119 -0.055068 0
1.264332 -0.057639 0
1.317792 -0.051782 0
1.359052 -0.035367 0
1.377218 -0.013679 0
1.372671 0.009566 0
1.344876 0.034012 0
1.295134 0.056672 0
1.226449 0.070829 0
1.144354 0.077283 0
1.081854 0.113283 0
1.011563 0.136241 0
0.925693 0.083659 0
0.828877 0.028186 0
0.753115 0.010924 0
0.740720 0.006778 0
1.000000 0.000043 0
1.000509 0.000043 0
1.001318 -0.000137 0
1.002353 -0.000480 0
1.003645 -0.000974 0
1.005230 -0.001645 0
1.007186 -0.002538 0
1.009630 -0.003738 0
1.012674 -0.005373 0
1.016224 -0.007421 0
1.020835 -0.009924 0
1.026729 -0.013109 0
1.034246 -0.017174 0
1.043826 -0.022351 0
1.056036 -0.028903 0
1.071627 -0.037096 0
1.091541 -0.047145 0
1.116937 -0.059092 0
1.149138 -0.072583 0
1.189419 -0.086577 0
1.238751 -0.098793 0
1.295981 -0.105929 0
1.359225 -0.103045 0
1.416011 -0.088506 0
1.459391 -0.066560 0
1.485922 -0.040891 0
1.497275 -0.016530 0
1.495412 0.001173 0
1.484837 0.009730 0
1.471451 0.007027 0
1.465265 -0.006130 0
1.477808 -0.018631 0
1.504841 -0.013665 0
1.524260 0.013331 0
1.519463 0.051067 0
1.487110 0.089108 0
1.434225 0.123313 0
1.364393 0.149385 0
1.279728 0.166171 0
1.184954 0.178151 0
1.108511 0.194347 0
1.000728 0.325147 0
0.850145 0.402614 0
0.818920 0.212756 0
0.720690 0.018608 0
0.528508 -0.068568 0
0.468631 -0.200305 0
0.558081 -0.329125 0
0.776613 -0.348174 0
0.991835 -0.324503 0
1.143074 -0.305893 0
1.267168 -0.268818 0
1.363181 -0.206410 0
1.435614 -0.107078 0
1.481993 0.021100 0
1.489999 0.148405 0
1.449591 0.250687 0
1.377376 0.308147 0
1.287278 0.336241 0
1.133628 0.360937 0
0.937663 0.286771 0
0.834011 0.120306 0
0.789320 -0.003606 0
0.764878 -0.076309 0
0.755068 -0.135912 0
0.769667 -0.190188 0
0.845252 -0.210664 0
0.962369 -0.206554 0
1.064471 -0.195848 0
1.142809 -0.168936 0
1.198961 -0.133787 0
1.236851 -0.097688 0
1.259388 -0.061390 0
1.266269 -0.021687 0
1.252059 0.021087 0
1.227952 0.060534 0
1.210501 0.091405 0
1.198579 0.110413 0
1.192397 0.117781 0
1.180297 0.105637 0
1.141601 0.051639 0
1.046927 0.009240 0
0.959610 0.008766 0
0.930954 -0.023565 0
0.977204 -0.075026 0
1.043240 -0.095589 0
1.116013 -0.102680 0
1.183774 -0.094727 0
1.237611 -0.059433 0
1.261621 -0.013627 0
1.268574 0.032335 0
1.255763 0.077530 0
1.222880 0.118420 0
1.174689 0.150773 0
1.105690 0.144588 0
0.998141 0.132784 0
0.905448 0.156154 0
0.829622 0.182679 0
0.774209 0.172571 0
0.791760 0.088150 0
0.793975 0.022908 0
1.000000 -0.000158 0
1.000362 -0.000513 0
1.000998 -0.000970 0
1.001873 -0.001563 0
1.002986 -0.002327 0
1.004362 -0.003314 0
1.006053 -0.004599 0
1.008136 -0.006283 0
1.010697 -0.008481 0
1.013824 -0.011289 0
1.017777 -0.014845 0
1.022789 -0.019372 0
1.029149 -0.025147 0
1.037229 -0.032516 0
1.047532 -0.041910 0
1.060807 -0.053813 0
1.078039 -0.068707 0
1.100656 -0.086938 0
1.130582 -0.108365 0
1.170146 -0.132029 0
1.222613 -0.154380 0
1.287403 -0.171004 0
1.373269 -0.168827 0
1.444880 -0.142305 0
1.489672 -0.101865 0
1.512431 -0.057986 0
1.519316 -0.018482 0
1.510025 0.011572 0
1.486666 0.027081 0
1.455281 0.021996 0
1.432851 -0.008160 0
1.449489 -0.044500 0
1.507339 -0.047547 0
1.557710 -0.003303 0
1.570017 0.065975 0
1.537482 0.132624 0
1.477150 0.187482 0
1.405667 0.231796 0
1.325666 0.262766 0
1.230333 0.284311 0
1.122235 0.322290 0
1.044961 0.352745 0
1.151383 0.268550 0
1.121771 0.217901 0
0.915948 0.306277 0
0.829330 0.198997 0
0.796313 -0.138271 0
0.698982 -0.444538 0
0.726047 -0.574517 0
0.920101 -0.521920 0
1.067388 -0.437879 0
1.170353 -0.364957 0
1.241404 -0.272950 0
1.291510 -0.159532 0
1.332356 -0.018352 0
1.357631 0.135863 0
1.357941 0.269893 0
1.324378 0.362990 0
1.252384 0.430490 0
1.176422 0.448300 0
1.154934 0.350262 0
1.126086 0.186134 0
1.095580 0.060633 0
1.081227 -0.015167 0
1.085151 -0.075312 0
1.077979 -0.162488 0
1.041505 -0.266589 0
1.022859 -0.309489 0
1.043810 -0.279411 0
1.071483 -0.223931 0
1.092294 -0.167143 0
1.104057 -0.115484 0
1.107613 -0.065678 0
1.108424 -0.007620 0
1.101253 0.048924 0
1.053501 0.080839 0
0.986280 0.095670 0
0.958007 0.102022 0
0.975097 0.104247 0
1.004910 0.121569 0
1.009145 0.174569 0
0.958682 0.196973 0
0.927522 0.114622 0
0.894815 -0.040465 0
0.800256 -0.156910 0
0.746085 -0.193880 0
0.773634 -0.198176 0
0.847005 -0.173383 0
0.935499 -0.113217 0
1.007305 -0.044645 0
1.044031 0.015422 0
1.059546 0.079703 0
1.072649 0.137742 0
1.082870 0.188017 0
1.071802 0.253828 0
0.988607 0.313522 0
0.905830 0.304757 0
0.841979 0.214896 0
0.830485 0.066044 0
0.879531 -0.008845 0
0.887170 0.000823 0
1.000000 -0.000306 0
1.000269 -0.000940 0
1.000763 -0.001642 0
1.001466 -0.002462 0
1.002369 -0.003458 0
1.003483 -0.004707 0
1.004840 -0.006306 0
1.006487 -0.008376 0
1.008500 -0.011056 0
1.010979 -0.014496 0
1.014079 -0.018884 0
1.017972 -0.024477 0
1.022865 -0.031610 0
1.029017 -0.040729 0
1.036754 -0.052475 0
1.046842 -0.067598 0
1.060100 -0.086990 0
1.078210 -0.111631 0
1.103648 -0.142069 0
1.140000 -0.178605 0
1.193780 -0.216046 0
1.266311 -0.256581 0
1.409427 -0.260520 0
1.497281 -0.204907 0
1.535681 -0.134110 0
1.548883 -0.070533 0
1.549795 -0.014122 0
1.533980 0.033824 0
1.491789 0.064475 0
1.428143 0.060844 0
1.361902 -0.000337 0
1.374766 -0.093119 0
1.491247 -0.121886 0
1.596651 -0.049347 0
1.644467 0.071295 0
1.619204 0.181975 0
1.534932 0.255127 0
1.428223 0.300867 0
1.324423 0.341504 0
1.231215 0.381580 0
1.162618 0.379717 0
1.158121 0.295998 0
1.085529 0.325803 0
0.860062 0.448189 0
0.825457 0.311046 0
1.013734 0.051064 0
1.117858 -0.069959 0
1.061075 -0.258861 0
0.906154 -0.569295 0
0.866960 -0.665846 0
0.983372 -0.556148 0
1.074210 -0.442836 0
1.129519 -0.327570 0
1.171988 -0.198035 0
1.205186 -0.045024 0
1.231848 0.122817 0
1.242735 0.283936 0
1.232655 0.413700 0
1.220223 0.484194 0
1.205733 0.458384 0
1.189476 0.337104 0
1.146814 0.179656 0
1.126164 0.041249 0
1.116892 -0.065883 0
1.119535 -0.132667 0
1.131197 -0.146546 0
1.093207 -0.155547 0
1.017715 -0.208863 0
0.975926 -0.244476 0
0.960916 -0.217423 0
0.944274 -0.166365 0
0.936009 -0.113010 0
0.951171 -0.065760 0
0.961934 -0.015331 0
0.931366 0.076007 0
0.861273 0.175505 0
0.808475 0.186896 0
0.808854 0.121593 0
0.825621 0.070876 0
0.835441 0.071586 0
0.848825 0.097863 0
0.902387 0.090860 0
0.943330 0.072631 0
0.891180 0.103698 0
0.718222 0.073701 0
0.571928 -0.068970 0
0.529674 -0.203604 0
0.577224 -0.256595 0
0.659369 -0.219736 0
0.753461 -0.122162 0
0.829370 -0.019909 0
0.877159 0.048910 0
0.904027 0.095093 0
0.917316 0.151616 0
0.919279 0.238849 0
0.930062 0.298753 0
0.940467 0.302778 0
0.971543 0.258022 0
1.009809 0.135017 0
0.931279 0.031462 0
0.914201 0.009003 0
1.000000 -0.000415 0
1.000188 -0.001261 0
1.000554 -0.002162 0
1.001084 -0.003163 0
1.001758 -0.004338 0
1.002581 -0.005779 0
1.003563 -0.007597 0
1.004713 -0.009938 0
1.006092 -0.012968 0
1.007786 -0.016863 0
1.009880 -0.021832 0
1.012467 -0.028152 0
1.015649 -0.036187 0
1.019563 -0.046400 0
1.023978 -0.059730 0
1.030057 -0.077155 0
1.037648 -0.100071 0
1.049080 -0.130481 0
1.066004 -0.170151 0
1.094168 -0.222158 0
1.139195 -0.280688 0
1.222616 -0.386647 0
1.478798 -0.399795 0
1.553233 -0.268557 0
1.556828 -0.153464 0
1.541560 -0.072099 0
1.533153 -0.003578 0
1.519403 0.069579 0
1.487176 0.132919 0
1.343058 0.151884 0
1.148943 0.045217 0
1.135799 -0.173845 0
1.325780 -0.269432 0
1.502087 -0.156524 0
1.626852 0.043422 0
1.666663 0.242158 0
1.622381 0.378462 0
1.515363 0.442304 0
1.379200 0.459772 0
1.261771 0.446115 0
1.188096 0.395383 0
1.085615 0.429832 0
0.816680 0.566606 0
0.768106 0.477971 0
0.900761 0.152603 0
0.885051 -0.093406 0
0.849204 -0.185614 0
0.904437 -0.232836 0
0.893318 -0.380405 0
0.793825 -0.599141 0
0.839914 -0.645132 0
0.965093 -0.511107 0
1.037407 -0.370731 0
1.068280 -0.235203 0
1.083540 -0.078216 0
1.104196 0.098310 0
1.145363 0.269083 0
1.121005 0.385499 0
1.078754 0.457409 0
1.120764 0.479044 0
1.144325 0.409178 0
1.053716 0.249442 0
0.888143 0.090551 0
0.758771 -0.008542 0
0.696109 -0.089620 0
0.697599 -0.136164 0
0.737217 -0.153110 0
0.770525 -0.192210 0
0.776342 -0.222616 0
0.788768 -0.192283 0
0.801537 -0.142239 0
0.802094 -0.122384 0
0.793775 -0.091607 0
0.776085 0.012182 0
0.752983 0.149582 0
0.763941 0.203727 0
0.790089 0.148086 0
0.776312 0.084874 0
0.748478 0.077656 0
0.754397 0.098362 0
0.782607 0.107620 0
0.786743 0.102464 0
0.714337 0.125826 0
0.593946 0.184640 0
0.492093 0.162339 0
0.402083 -0.005334 0
0.354595 -0.203475 0
0.382544 -0.303082 0
0.455603 -0.289457 0
0.523007 -0.214650 0
0.571941 -0.108279 0
0.598745 0.005044 0
0.606817 0.097582 0
0.615695 0.172762 0
0.644437 0.241078 0
0.715084 0.292331 0
0.796941 0.263273 0
0.880706 0.145551 0
0.898272 0.106306 0
0.825374 0.086760 0
0.805511 0.036861 0
1.000000 -0.000482 0
1.000090 -0.001479 0
1.000358 -0.002532 0
1.000738 -0.003660 0
1.001176 -0.004950 0
1.001679 -0.006505 0
1.002265 -0.008432 0
1.002873 -0.010899 0
1.003552 -0.014123 0
1.004414 -0.018279 0
1.005433 -0.023559 0
1.006637 -0.030240 0
1.008005 -0.038701 0
1.009870 -0.049053 0
1.009924 -0.062965 0
1.012059 -0.081263 0
1.012001 -0.106008 0
1.019096 -0.139983 0
1.014991 -0.187153 0
1.036783 -0.251791 0
1.044302 -0.344490 0
1.156068 -0.596181 0
1.490636 -0.591134 0
1.408038 -0.282935 0
1.307418 -0.122435 0
1.259105 -0.046857 0
1.209323 0.008036 0
1.254901 0.079802 0
1.228724 0.240821 0
1.304726 0.399077 0
0.948738 0.206922 0
0.584839 -0.269956 0
0.709758 -0.488174 0
0.994954 -0.350419 0
1.296551 -0.093282 0
1.416014 0.186445 0
1.469615 0.406427 0
1.472145 0.544047 0
1.409570 0.595095 0
1.305061 0.572683 0
1.170431 0.555871 0
0.983566 0.667412 0
0.872085 0.643310 0
0.935480 0.364106 0
0.870433 0.194099 0
0.718855 0.102618 0
0.671966 -0.089348 0
0.770305 -0.302977 0
0.907235 -0.458686 0
0.950437 -0.612445 0
0.882863 -0.727419 0
0.890697 -0.640332 0
0.969866 -0.430760 0
1.030248 -0.244171 0
1.052466 -0.080944 0
1.027029 0.060990 0
0.968111 0.267125 0
0.915404 0.480307 0
0.904672 0.484432 0
0.921263 0.392809 0
0.857913 0.404149 0
0.748352 0.435834 0
0.630794 0.336191 0
0.564301 0.126147 0
0.538913 -0.071499 0
0.537879 -0.187657 0
0.561228 -0.228476 0
0.590223 -0.247991 0
0.602717 -0.262722 0
0.619324 -0.242621 0
0.650457 -0.179694 0
0.661074 -0.105251 0
0.635000 -0.039754 0
0.610210 0.025457 0
0.637381 0.088148 0
0.709695 0.138396 0
0.759164 0.174521 0
0.759909 0.163201 0
0.741725 0.092787 0
0.716517 0.037453 0
0.687012 0.065514 0
0.634766 0.159128 0
0.539874 0.265424 0
0.450696 0.325938 0
0.406316 0.265561 0
0.357519 0.068525 0
0.275817 -0.184067 0
0.229746 -0.357606 0
0.279154 -0.360202 0
0.359778 -0.238502 0
0.418054 -0.095650 0
0.460988 0.014030 0
0.497814 0.078140 0
0.534250 0.113994 0
0.581122 0.139456 0
0.642511 0.146246 0
0.716737 0.137153 0
0.720722 0.156688 0
0.650659 0.190347 0
0.640949 0.124220 0
0.637549 0.048281 0
1.000000 -0.000493 0
1.000021 -0.001604 0
1.000118 -0.002804 0
1.000428 -0.003975 0
1.000667 -0.005272 0
1.000836 -0.006863 0
1.001107 -0.008785 0
1.001296 -0.011219 0
1.001053 -0.014503 0
1.001242 -0.018738 0
1.000890 -0.024050 0
1.000820 -0.030718 0
1.000657 -0.039415 0
1.000476 -0.048315 0
0.998239 -0.061915 0
0.995959 -0.079227 0
0.990875 -0.107103 0
0.987976 -0.133466 0
0.969603 -0.187834 0
0.976276 -0.251466 0
0.925996 -0.399970 0
1.029013 -0.832978 0
0.729267 -0.566426 0
0.000843 0.000000 0
0.001334 0.000000 0
0.501505 0.030527 0
0.483556 0.000627 0
0.357275 0.050179 0
0.586500 0.083095 0
0.633356 0.431871 0
0.259138 0.765104 0
-0.026439 0.065135 0
-0.196076 -0.679547 0
0.078938 -0.743317 0
0.600549 -0.377639 0
0.939883 0.069093 0
1.136858 0.322331 0
1.218246 0.502348 0
1.229417 0.626854 0
1.198043 0.685252 0
1.114750 0.716876 0
1.026141 0.728176 0
1.067613 0.614690 0
0.968801 0.479621 0
0.775100 0.369226 0
0.744591 0.105058 0
0.803864 -0.237067 0
0.857032 -0.468108 0
0.920411 -0.560540 0
1.000232 -0.574772 0
0.998032 -0.585395 0
0.934404 -0.598113 0
0.907842 -0.510285 0
0.913979 -0.317806 0
0.944606 -0.075000 0
0.937108 0.182662 0
0.883537 0.380704 0
0.925527 0.448935 0
0.984891 0.451547 0
0.841971 0.525800 0
0.707203 0.582086 0
0.705835 0.476557 0
0.790664 0.274599 0
0.855773 0.083336 0
0.831381 -0.063202 0
0.711305 -0.158482 0
0.581411 -0.205458 0
0.502581 -0.233703 0
0.469897 -0.251720 0
0.458391 -0.240025 0
0.469172 -0.183992 0
0.490684 -0.106931 0
0.507425 -0.040746 0
0.520884 0.009798 0
0.548330 0.050094 0
0.591511 0.081941 0
0.660149 0.097869 0
0.747851 0.102310 0
0.793779 0.121044 0
0.767320 0.153072 0
0.697640 0.189368 0
0.605204 0.249599 0
0.520537 0.309893 0
0.498723 0.318195 0
0.543115 0.255512 0
0.596062 0.125162 0
0.559033 -0.075706 0
0.389181 -0.306422 0
0.270529 -0.419491 0
0.273360 -0.353553 0
0.336943 -0.209492 0
0.413755 -0.074719 0
0.474398 0.024317 0
0.506338 0.089450 0
0.518909 0.132814 0
0.522463 0.156713 0
0.510584 0.185060 0
0.489449 0.211626 0
0.510115 0.186075 0
0.566449 0.099867 0
0.575653 0.042334 0
1.000000 -0.000491 0
1.000051 -0.001582 0
0.999951 -0.002932 0
1.000012 -0.004203 0
1.000277 -0.005352 0
1.000132 -0.006940 0
1.000319 -0.008886 0
0.999827 -0.010839 0
0.999878 -0.014064 0
0.998291 -0.018109 0
0.998550 -0.023131 0
0.996637 -0.030002 0
0.996039 -0.038352 0
0.990213 -0.046630 0
0.991838 -0.058443 0
0.980038 -0.073895 0
0.980167 -0.098020 0
0.950534 -0.118707 0
0.952448 -0.175450 0
0.882628 -0.208181 0
0.865520 -0.397222 0
0.660922 -0.484785 0
0.000000 -0.000442 0
-0.618566 0.181086 0
-0.530336 0.000000 0
0.000000 0.000000 0
0.024739 0.146479 0
-0.000755 -0.023141 0
0.060088 -0.035259 0
-0.386560 0.726440 0
-0.474282 0.866717 0
-0.255688 0.185258 0
-0.412135 -0.593550 0
-0.352516 -1.147044 0
-0.111255 -0.954228 0
0.449433 -0.349865 0
0.770319 0.128063 0
0.945178 0.451487 0
1.057588 0.615296 0
1.096571 0.687349 0
1.064839 0.727771 0
1.057609 0.714547 0
1.033337 0.700647 0
0.885972 0.656617 0
0.844598 0.418307 0
0.850509 0.073852 0
0.770133 -0.201791 0
0.653842 -0.419527 0
0.625169 -0.601890 0
0.703132 -0.690069 0
0.825423 -0.661594 0
0.889224 -0.550146 0
0.886724 -0.410338 0
0.849027 -0.280937 0
0.812552 -0.104076 0
0.842169 0.122055 0
0.976743 0.278702 0
1.053587 0.378950 0
0.964411 0.567984 0
0.820088 0.670494 0
0.782457 0.540281 0
0.805265 0.352370 0
0.837844 0.186250 0
0.845748 0.085426 0
0.797780 0.072965 0
0.688161 0.062309 0
0.566911 -0.019755 0
0.469250 -0.136480 0
0.406766 -0.218535 0
0.375383 -0.241899 0
0.374420 -0.211991 0
0.405991 -0.143507 0
0.451426 -0.069957 0
0.490676 -0.015451 0
0.523633 0.017518 0
0.562444 0.026573 0
0.622694 0.018179 0
0.711871 0.029568 0
0.811801 0.073315 0
0.869226 0.133589 0
0.829430 0.227628 0
0.728140 0.336228 0
0.661783 0.371902 0
0.656300 0.303357 0
0.715842 0.168220 0
0.841088 0.052604 0
0.929042 0.022810 0
0.873853 -0.069105 0
0.615189 -0.244384 0
0.353007 -0.304919 0
0.242638 -0.236049 0
0.236460 -0.123428 0
0.265644 -0.014445 0
0.297947 0.069480 0
0.327554 0.123328 0
0.358976 0.154568 0
0.390900 0.170164 0
0.451993 0.157154 0
0.530243 0.113344 0
0.598764 0.058679 0
0.612377 0.029567 0
1.000000 -0.000532 0
1.000004 -0.001539 0
0.999922 -0.002759 0
0.999877 -0.004296 0
0.999706 -0.005386 0
0.999970 -0.006899 0
0.999332 -0.008475 0
0.999014 -0.010772 0
0.998620 -0.012961 0
0.998240 -0.017404 0
0.995750 -0.022390 0
0.994602 -0.028202 0
0.991168 -0.032986 0
0.988251 -0.044108 0
0.980236 -0.051735 0
0.974639 -0.067551 0
0.961291 -0.077594 0
0.939866 -0.105744 0
0.919694 -0.119924 0
0.839958 -0.164533 0
0.812240 -0.178259 0
0.469514 -0.046320 0
0.351599 0.015632 0
0.000000 0.000000 0
0.000000 0.000000 0
0.000000 0.000000 0
0.000000 0.000000 0
0.150885 0.019237 0
-0.005654 0.468901 0
-0.479476 0.966242 0
-0.031220 0.634233 0
0.154689 0.002988 0
0.021556 -0.582719 0
-0.132579 -1.044197 0
-0.232744 -1.179588 0
0.061771 -0.812481 0
0.443378 -0.173415 0
0.715986 0.215078 0
0.880108 0.475460 0
0.925707 0.678000 0
0.958942 0.755836 0
0.963806 0.759677 0
0.859082 0.786324 0
0.807687 0.668358 0
0.814762 0.404687 0
0.754574 0.179520 0
0.685556 -0.040403 0
0.637514 -0.323147 0
0.599254 -0.609833 0
0.609641 -0.775029 0
0.698061 -0.771489 0
0.780817 -0.659416 0
0.859318 -0.470091 0
0.927615 -0.243638 0
0.955082 -0.068146 0
0.993164 0.018467 0
0.979401 0.169283 0
0.874582 0.461263 0
0.749635 0.685043 0
0.763934 0.707751 0
0.787369 0.596906 0