# vtk DataFile Version 2.0
generated by CFD-lab course output (written by Tobias Neckel) 
ASCII

DATASET STRUCTURED_GRID
DIMENSIONS  101 21 1 
POINTS 2121 float

0.000000 0.000000 0
0.100000 0.000000 0
0.200000 0.000000 0
0.300000 0.000000 0
0.400000 0.000000 0
0.500000 0.000000 0
0.600000 0.000000 0
0.700000 0.000000 0
0.800000 0.000000 0
0.900000 0.000000 0
1.000000 0.000000 0
1.100000 0.000000 0
1.200000 0.000000 0
1.300000 0.000000 0
1.400000 0.000000 0
1.500000 0.000000 0
1.600000 0.000000 0
1.700000 0.000000 0
1.800000 0.000000 0
1.900000 0.000000 0
2.000000 0.000000 0
2.100000 0.000000 0
2.200000 0.000000 0
2.300000 0.000000 0
2.400000 0.000000 0
2.500000 0.000000 0
2.600000 0.000000 0
2.700000 0.000000 0
2.800000 0.000000 0
2.900000 0.000000 0
3.000000 0.000000 0
3.100000 0.000000 0
3.200000 0.000000 0
3.300000 0.000000 0
3.400000 0.000000 0
3.500000 0.000000 0
3.600000 0.000000 0
3.700000 0.000000 0
3.800000 0.000000 0
3.900000 0.000000 0
4.000000 0.000000 0
4.100000 0.000000 0
4.200000 0.000000 0
4.300000 0.000000 0
4.400000 0.000000 0
4.500000 0.000000 0
4.600000 0.000000 0
4.700000 0.000000 0
4.800000 0.000000 0
4.900000 0.000000 0
5.000000 0.000000 0
5.100000 0.000000 0
5.200000 0.000000 0
5.300000 0.000000 0
5.400000 0.000000 0
5.500000 0.000000 0
5.600000 0.000000 0
5.700000 0.000000 0
5.800000 0.000000 0
5.900000 0.000000 0
6.000000 0.000000 0
6.100000 0.000000 0
6.200000 0.000000 0
6.300000 0.000000 0
6.400000 0.000000 0
6.500000 0.000000 0
6.600000 0.000000 0
6.700000 0.000000 0
6.800000 0.000000 0
6.900000 0.000000 0
7.000000 0.000000 0
7.100000 0.000000 0
7.200000 0.000000 0
7.300000 0.000000 0
7.400000 0.000000 0
7.500000 0.000000 0
7.600000 0.000000 0
7.700000 0.000000 0
7.800000 0.000000 0
7.900000 0.000000 0
8.000000 0.000000 0
8.100000 0.000000 0
8.200000 0.000000 0
8.300000 0.000000 0
8.400000 0.000000 0
8.500000 0.000000 0
8.600000 0.000000 0
8.700000 0.000000 0
8.800000 0.000000 0
8.900000 0.000000 0
9.000000 0.000000 0
9.100000 0.000000 0
9.200000 0.000000 0
9.300000 0.000000 0
9.400000 0.000000 0
9.500000 0.000000 0
9.600000 0.000000 0
9.700000 0.000000 0
9.800000 0.000000 0
9.900000 0.000000 0
10.000000 0.000000 0
0.000000 0.100000 0
0.100000 0.100000 0
0.200000 0.100000 0
0.300000 0.100000 0
0.400000 0.100000 0
0.500000 0.100000 0
0.600000 0.100000 0
0.700000 0.100000 0
0.800000 0.100000 0
0.900000 0.100000 0
1.000000 0.100000 0
1.100000 0.100000 0
1.200000 0.100000 0
1.300000 0.100000 0
1.400000 0.100000 0
1.500000 0.100000 0
1.600000 0.100000 0
1.700000 0.100000 0
1.800000 0.100000 0
1.900000 0.100000 0
2.000000 0.100000 0
2.100000 0.100000 0
2.200000 0.100000 0
2.300000 0.100000 0
2.400000 0.100000 0
2.500000 0.100000 0
2.600000 0.100000 0
2.700000 0.100000 0
2.800000 0.100000 0
2.900000 0.100000 0
3.000000 0.100000 0
3.100000 0.100000 0
3.200000 0.100000 0
3.300000 0.100000 0
3.400000 0.100000 0
3.500000 0.100000 0
3.600000 0.100000 0
3.700000 0.100000 0
3.800000 0.100000 0
3.900000 0.100000 0
4.000000 0.100000 0
4.100000 0.100000 0
4.200000 0.100000 0
4.300000 0.100000 0
4.400000 0.100000 0
4.500000 0.100000 0
4.600000 0.100000 0
4.700000 0.100000 0
4.800000 0.100000 0
4.900000 0.100000 0
5.000000 0.100000 0
5.100000 0.100000 0
5.200000 0.100000 0
5.300000 0.100000 0
5.400000 0.100000 0
5.500000 0.100000 0
5.600000 0.100000 0
5.700000 0.100000 0
5.800000 0.100000 0
5.900000 0.100000 0
6.000000 0.100000 0
6.100000 0.100000 0
6.200000 0.100000 0
6.300000 0.100000 0
6.400000 0.100000 0
6.500000 0.100000 0
6.600000 0.100000 0
6.700000 0.100000 0
6.800000 0.100000 0
6.900000 0.100000 0
7.000000 0.100000 0
7.100000 0.100000 0
7.200000 0.100000 0
7.300000 0.100000 0
7.400000 0.100000 0
7.500000 0.100000 0
7.600000 0.100000 0
7.700000 0.100000 0
7.800000 0.100000 0
7.900000 0.100000 0
8.000000 0.100000 0
8.100000 0.100000 0
8.200000 0.100000 0
8.300000 0.100000 0
8.400000 0.100000 0
8.500000 0.100000 0
8.600000 0.100000 0
8.700000 0.100000 0
8.800000 0.100000 0
8.900000 0.100000 0
9.000000 0.100000 0
9.100000 0.100000 0
9.200000 0.100000 0
9.300000 0.100000 0
9.400000 0.100000 0
9.500000 0.100000 0
9.600000 0.100000 0
9.700000 0.100000 0
9.800000 0.100000 0
9.900000 0.100000 0
10.000000 0.100000 0
0.000000 0.200000 0
0.100000 0.200000 0
0.200000 0.200000 0
0.300000 0.200000 0
0.400000 0.200000 0
0.500000 0.200000 0
0.600000 0.200000 0
0.700000 0.200000 0
0.800000 0.200000 0
0.900000 0.200000 0
1.000000 0.200000 0
1.100000 0.200000 0
1.200000 0.200000 0
1.300000 0.200000 0
1.400000 0.200000 0
1.500000 0.200000 0
1.600000 0.200000 0
1.700000 0.200000 0
1.800000 0.200000 0
1.900000 0.200000 0
2.000000 0.200000 0
2.100000 0.200000 0
2.200000 0.200000 0
2.300000 0.200000 0
2.400000 0.200000 0
2.500000 0.200000 0
2.600000 0.200000 0
2.700000 0.200000 0
2.800000 0.200000 0
2.900000 0.200000 0
3.000000 0.200000 0
3.100000 0.200000 0
3.200000 0.200000 0
3.300000 0.200000 0
3.400000 0.200000 0
3.500000 0.200000 0
3.600000 0.200000 0
3.700000 0.200000 0
3.800000 0.200000 0
3.900000 0.200000 0
4.000000 0.200000 0
4.100000 0.200000 0
4.200000 0.200000 0
4.300000 0.200000 0
4.400000 0.200000 0
4.500000 0.200000 0
4.600000 0.200000 0
4.700000 0.200000 0
4.800000 0.200000 0
4.900000 0.200000 0
5.000000 0.200000 0
5.100000 0.200000 0
5.200000 0.200000 0
5.300000 0.200000 0
5.400000 0.200000 0
5.500000 0.200000 0
5.600000 0.200000 0
5.700000 0.200000 0
5.800000 0.200000 0
5.900000 0.200000 0
6.000000 0.200000 0
6.100000 0.200000 0
6.200000 0.200000 0
6.300000 0.200000 0
6.400000 0.200000 0
6.500000 0.200000 0
6.600000 0.200000 0
6.700000 0.200000 0
6.800000 0.200000 0
6.900000 0.200000 0
7.000000 0.200000 0
7.100000 0.200000 0
7.200000 0.200000 0
7.300000 0.200000 0
7.400000 0.200000 0
7.500000 0.200000 0
7.600000 0.200000 0
7.700000 0.200000 0
7.800000 0.200000 0
7.900000 0.200000 0
8.000000 0.200000 0
8.100000 0.200000 0
8.200000 0.200000 0
8.300000 0.200000 0
8.400000 0.200000 0
8.500000 0.200000 0
8.600000 0.200000 0
8.700000 0.200000 0
8.800000 0.200000 0
8.900000 0.200000 0
9.000000 0.200000 0
9.100000 0.200000 0
9.200000 0.200000 0
9.300000 0.200000 0
9.400000 0.200000 0
9.500000 0.200000 0
9.600000 0.200000 0
9.700000 0.200000 0
9.800000 0.200000 0
9.900000 0.200000 0
10.000000 0.200000 0
0.000000 0.300000 0
0.100000 0.300000 0
0.200000 0.300000 0
0.300000 0.300000 0
0.400000 0.300000 0
0.500000 0.300000 0
0.600000 0.300000 0
0.700000 0.300000 0
0.800000 0.300000 0
0.900000 0.300000 0
1.000000 0.300000 0
1.100000 0.300000 0
1.200000 0.300000 0
1.300000 0.300000 0
1.400000 0.300000 0
1.500000 0.300000 0
1.600000 0.300000 0
1.700000 0.300000 0
1.800000 0.300000 0
1.900000 0.300000 0
2.000000 0.300000 0
2.100000 0.300000 0
2.200000 0.300000 0
2.300000 0.300000 0
2.400000 0.300000 0
2.500000 0.300000 0
2.600000 0.300000 0
2.700000 0.300000 0
2.800000 0.300000 0
2.900000 0.300000 0
3.000000 0.300000 0
3.100000 0.300000 0
3.200000 0.300000 0
3.300000 0.300000 0
3.400000 0.300000 0
3.500000 0.300000 0
3.600000 0.300000 0
3.700000 0.300000 0
3.800000 0.300000 0
3.900000 0.300000 0
4.000000 0.300000 0
4.100000 0.300000 0
4.200000 0.300000 0
4.300000 0.300000 0
4.400000 0.300000 0
4.500000 0.300000 0
4.600000 0.300000 0
4.700000 0.300000 0
4.800000 0.300000 0
4.900000 0.300000 0
5.000000 0.300000 0
5.100000 0.300000 0
5.200000 0.300000 0
5.300000 0.300000 0
5.400000 0.300000 0
5.500000 0.300000 0
5.600000 0.300000 0
5.700000 0.300000 0
5.800000 0.300000 0
5.900000 0.300000 0
6.000000 0.300000 0
6.100000 0.300000 0
6.200000 0.300000 0
6.300000 0.300000 0
6.400000 0.300000 0
6.500000 0.300000 0
6.600000 0.300000 0
6.700000 0.300000 0
6.800000 0.300000 0
6.900000 0.300000 0
7.000000 0.300000 0
7.100000 0.300000 0
7.200000 0.300000 0
7.300000 0.300000 0
7.400000 0.300000 0
7.500000 0.300000 0
7.600000 0.300000 0
7.700000 0.300000 0
7.800000 0.300000 0
7.900000 0.300000 0
8.000000 0.300000 0
8.100000 0.300000 0
8.200000 0.300000 0
8.300000 0.300000 0
8.400000 0.300000 0
8.500000 0.300000 0
8.600000 0.300000 0
8.700000 0.300000 0
8.800000 0.300000 0
8.900000 0.300000 0
9.000000 0.300000 0
9.100000 0.300000 0
9.200000 0.300000 0
9.300000 0.300000 0
9.400000 0.300000 0
9.500000 0.300000 0
9.600000 0.300000 0
9.700000 0.300000 0
9.800000 0.300000 0
9.900000 0.300000 0
10.000000 0.300000 0
0.000000 0.400000 0
0.100000 0.400000 0
0.200000 0.400000 0
0.300000 0.400000 0
0.400000 0.400000 0
0.500000 0.400000 0
0.600000 0.400000 0
0.700000 0.400000 0
0.800000 0.400000 0
0.900000 0.400000 0
1.000000 0.400000 0
1.100000 0.400000 0
1.200000 0.400000 0
1.300000 0.400000 0
1.400000 0.400000 0
1.500000 0.400000 0
1.600000 0.400000 0
1.700000 0.400000 0
1.800000 0.400000 0
1.900000 0.400000 0
2.000000 0.400000 0
2.100000 0.400000 0
2.200000 0.400000 0
2.300000 0.400000 0
2.400000 0.400000 0
2.500000 0.400000 0
2.600000 0.400000 0
2.700000 0.400000 0
2.800000 0.400000 0
2.900000 0.400000 0
3.000000 0.400000 0
3.100000 0.400000 0
3.200000 0.400000 0
3.300000 0.400000 0
3.400000 0.400000 0
3.500000 0.400000 0
3.600000 0.400000 0
3.700000 0.400000 0
3.800000 0.400000 0
3.900000 0.400000 0
4.000000 0.400000 0
4.100000 0.400000 0
4.200000 0.400000 0
4.300000 0.400000 0
4.400000 0.400000 0
4.500000 0.400000 0
4.600000 0.400000 0
4.700000 0.400000 0
4.800000 0.400000 0
4.900000 0.400000 0
5.000000 0.400000 0
5.100000 0.400000 0
5.200000 0.400000 0
5.300000 0.400000 0
5.400000 0.400000 0
5.500000 0.400000 0
5.600000 0.400000 0
5.700000 0.400000 0
5.800000 0.400000 0
5.900000 0.400000 0
6.000000 0.400000 0
6.100000 0.400000 0
6.200000 0.400000 0
6.300000 0.400000 0
6.400000 0.400000 0
6.500000 0.400000 0
6.600000 0.400000 0
6.700000 0.400000 0
6.800000 0.400000 0
6.900000 0.400000 0
7.000000 0.400000 0
7.100000 0.400000 0
7.200000 0.400000 0
7.300000 0.400000 0
7.400000 0.400000 0
7.500000 0.400000 0
7.600000 0.400000 0
7.700000 0.400000 0
7.800000 0.400000 0
7.900000 0.400000 0
8.000000 0.400000 0
8.100000 0.400000 0
8.200000 0.400000 0
8.300000 0.400000 0
8.400000 0.400000 0
8.500000 0.400000 0
8.600000 0.400000 0
[...]
POINT_DATA 2121 

VECTORS velocity float
0.500000 0.000000 0
-0.000004 0.000000 0
-0.000014 0.000000 0
-0.000030 0.000000 0
-0.000056 0.000000 0
-0.000105 0.000000 0
-0.000140 0.000000 0
-0.000168 0.000000 0
-0.000210 0.000000 0
-0.000262 0.000000 0
-0.000320 0.000000 0
-0.000383 0.000000 0
-0.000450 0.000000 0
-0.000524 0.000000 0
-0.000605 0.000000 0
-0.000696 0.000000 0
-0.000797 0.000000 0
-0.000908 0.000000 0
-0.001025 0.000000 0
-0.001140 0.000000 0
-0.001235 0.000000 0
-0.001280 0.000000 0
-0.001247 0.000000 0
-0.001114 0.000000 0
-0.000831 0.000000 0
-0.000374 0.000000 0
0.000272 0.000000 0
0.001156 0.000000 0
0.002295 0.000000 0
0.003271 0.000000 0
0.004323 0.000000 0
0.005230 0.000000 0
0.005910 0.000000 0
0.006171 0.000000 0
0.005799 0.000000 0
0.007879 0.000000 0
0.007190 0.000000 0
0.008870 0.000000 0
0.014527 0.000000 0
-0.000160 0.000000 0
-0.009679 0.000000 0
-0.028760 0.000000 0
-0.040744 0.000000 0
-0.038983 0.000000 0
-0.040379 0.000000 0
-0.033477 0.000000 0
-0.017496 0.000000 0
0.002308 0.000000 0
0.018595 0.000000 0
0.026638 0.000000 0
0.027540 0.000000 0
0.023629 0.000000 0
0.019564 0.000000 0
0.026504 0.000000 0
0.029707 0.000000 0
0.011788 0.000000 0
-0.005514 0.000000 0
-0.005452 0.000000 0
-0.008165 0.000000 0
-0.011166 0.000000 0
-0.012260 0.000000 0
-0.011500 0.000000 0
-0.007940 0.000000 0
-0.008849 0.000000 0
-0.009185 0.000000 0
-0.008383 0.000000 0
-0.007229 0.000000 0
-0.005537 0.000000 0
-0.003592 0.000000 0
-0.001934 0.000000 0
-0.001021 0.000000 0
0.000187 0.000000 0
0.004708 0.000000 0
0.012180 0.000000 0
0.018405 0.000000 0
0.023232 0.000000 0
0.013720 0.000000 0
-0.002345 0.000000 0
-0.009941 0.000000 0
-0.011592 0.000000 0
-0.009679 0.000000 0
-0.010167 0.000000 0
-0.009190 0.000000 0
-0.007135 0.000000 0
-0.004423 0.000000 0
-0.001383 0.000000 0
0.001679 0.000000 0
0.004528 0.000000 0
0.006775 0.000000 0
0.006366 0.000000 0
0.002268 0.000000 0
0.019854 0.000000 0
0.013612 0.000000 0
0.006150 0.000000 0
0.008237 0.000000 0
0.008807 0.000000 0
0.001020 0.000000 0
-0.009788 0.000000 0
-0.015419 0.000000 0
-0.008956 0.000000 0
-0.008053 0.000000 0
1.000000 0.000353 0
0.999942 0.000785 0
1.000005 0.000776 0
1.000337 0.000500 0
1.001092 -0.000049 0
1.002443 -0.000949 0
1.004554 -0.001833 0
1.007510 -0.002668 0
1.011482 -0.003795 0
1.016690 -0.005214 0
1.023396 -0.006947 0
1.031924 -0.009060 0
1.042683 -0.011650 0
1.056192 -0.014842 0
1.073107 -0.018772 0
1.094236 -0.023573 0
1.120531 -0.029335 0
1.153048 -0.036033 0
1.192820 -0.043406 0
1.240563 -0.050790 0
1.296212 -0.056912 0
1.357776 -0.060039 0
1.422168 -0.057968 0
1.479763 -0.049174 0
1.524493 -0.035550 0
1.553720 -0.020066 0
1.566763 -0.003941 0
1.563793 0.012620 0
1.545119 0.028977 0
1.510713 0.043999 0
1.461836 0.057693 0
1.400132 0.070167 0
1.326375 0.080576 0
1.242846 0.085532 0
1.153230 0.089730 0
1.061672 0.117773 0
0.960944 0.126337 0
0.816190 0.130106 0
0.576123 0.158556 0
0.428409 0.113371 0
0.344517 -0.002706 0
0.323453 -0.162620 0
0.541709 -0.289642 0
0.909237 -0.328818 0
1.240452 -0.322999 0
1.528165 -0.266131 0
1.751339 -0.161916 0
1.876099 -0.031994 0
1.893391 0.084160 0
1.813035 0.158328 0
1.671839 0.187676 0
1.511659 0.181443 0
1.349012 0.177751 0
1.169279 0.253287 0
0.970363 0.303435 0
0.815440 0.179319 0
0.702817 0.028219 0
0.586085 -0.020661 0
0.538342 -0.051389 0
0.580834 -0.099207 0
0.659246 -0.131579 0
0.770655 -0.138375 0
0.910058 -0.115974 0
1.028345 -0.100636 0
1.131258 -0.100996 0
1.232937 -0.093378 0
1.323712 -0.078938 0
1.396778 -0.058561 0
1.445164 -0.034830 0
1.466959 -0.013105 0
1.465889 0.002672 0
1.449848 0.019826 0
1.419544 0.056882 0
1.356006 0.112629 0
1.266007 0.165955 0
1.166256 0.184067 0
1.076358 0.125737 0
1.010693 0.011155 0
0.980063 -0.072541 0
0.987984 -0.094285 0
1.034360 -0.092529 0
1.107834 -0.089691 0
1.187378 -0.081498 0
1.255657 -0.063512 0
1.305091 -0.039090 0
1.331219 -0.010636 0
1.329703 0.019949 0
1.296343 0.051068 0
1.245664 0.075322 0
1.217339 0.074536 0
1.103762 0.087416 0
0.888453 0.134668 0
0.794415 0.117197 0
0.822398 0.056948 0
0.871606 0.053527 0
0.915959 0.053033 0
0.941584 -0.006279 0
0.939328 -0.086496 0
0.923764 -0.120751 0
0.902374 -0.068522 0
0.901062 -0.017010 0
1.000000 0.000037 0
1.000509 -0.000036 0
1.001405 -0.000413 0
1.002668 -0.001104 0
1.004379 -0.002124 0
1.006567 -0.003480 0
1.009260 -0.005083 0
1.012851 -0.006944 0
1.017431 -0.009196 0
1.023144 -0.011928 0
1.030205 -0.015248 0
1.038903 -0.019300 0
1.049608 -0.024281 0
1.062800 -0.030437 0
1.079105 -0.038056 0
1.099332 -0.047436 0
1.124499 -0.058825 0
1.155853 -0.072302 0
1.194860 -0.087529 0
1.243036 -0.103406 0
1.301519 -0.117227 0
1.368847 -0.125971 0
1.443806 -0.122002 0
1.508921 -0.102339 0
1.557549 -0.073971 0
1.588397 -0.042284 0
1.602178 -0.010086 0
1.600093 0.021630 0
1.583938 0.053068 0
1.553827 0.083271 0
1.508535 0.110570 0
1.449533 0.135452 0
1.376868 0.157277 0
1.292045 0.173137 0
1.197902 0.181168 0
1.092922 0.192280 0
1.014095 0.245476 0
1.023349 0.384817 0
1.007595 0.387778 0
0.778921 0.231603 0
0.412420 0.104954 0
0.274601 -0.197194 0
0.348044 -0.585784 0
0.632731 -0.698743 0
0.987373 -0.618928 0
1.219656 -0.510886 0
1.400586 -0.347932 0
1.542143 -0.142050 0
1.638191 0.063066 0
1.662122 0.221554 0
1.617234 0.301378 0
1.524161 0.322830 0
1.395024 0.342383 0
1.264149 0.378652 0
1.207742 0.353842 0
1.166308 0.267549 0
1.059892 0.229358 0
0.968233 0.164478 0
0.898197 0.005254 0
0.758149 -0.120901 0
0.650392 -0.189818 0
0.639458 -0.250809 0
0.762931 -0.257687 0
0.945128 -0.221196 0
1.071112 -0.204589 0
1.177566 -0.192451 0
1.272961 -0.163838 0
1.352319 -0.121448 0
1.403328 -0.070178 0
1.422402 -0.020723 0
1.412239 0.017114 0
1.394363 0.046348 0
1.412097 0.093845 0
1.419926 0.153540 0
1.371220 0.189752 0
1.294442 0.189651 0
1.249253 0.155565 0
1.199668 0.096297 0
1.133111 0.022710 0
1.081710 -0.054296 0
1.073129 -0.119850 0
1.106228 -0.153018 0
1.154867 -0.147823 0
1.200179 -0.117713 0
1.237226 -0.075562 0
1.263136 -0.024613 0
1.269173 0.034874 0
1.244121 0.084037 0
1.189221 0.079002 0
1.083189 0.141900 0
0.919356 0.328883 0
0.785939 0.309343 0
0.750740 0.066052 0
0.763999 -0.077194 0
0.775379 -0.093564 0
0.804933 -0.069981 0
0.825405 -0.023373 0
0.811864 0.017815 0
0.772609 0.036949 0
0.740978 0.022699 0
0.735260 0.001551 0
1.000000 -0.000171 0
1.000334 -0.000638 0
1.001029 -0.001389 0
1.002081 -0.002481 0
1.003537 -0.003955 0
1.005462 -0.005836 0
1.007950 -0.008122 0
1.011177 -0.010843 0
1.015256 -0.014092 0
1.020315 -0.017993 0
1.026529 -0.022711 0
1.034135 -0.028467 0
1.043445 -0.035552 0
1.054870 -0.044343 0
1.068986 -0.055308 0
1.086594 -0.068971 0
1.108770 -0.085860 0
1.136993 -0.106398 0
1.173286 -0.130593 0
1.220663 -0.157454 0
1.282631 -0.182728 0
1.358396 -0.202330 0
1.456527 -0.198047 0
1.536227 -0.162923 0
1.589297 -0.115030 0
1.620136 -0.064699 0
1.632592 -0.015641 0
1.628767 0.030856 0
1.611764 0.075239 0
1.584490 0.119399 0
1.543259 0.161985 0
1.485190 0.201831 0
1.412145 0.238063 0
1.328655 0.264498 0
1.230502 0.288852 0
1.106917 0.301579 0
0.983739 0.195909 0
0.926677 0.136606 0
0.954421 0.402984 0
0.728757 0.708546 0
0.609127 0.501615 0
0.689302 -0.098244 0
0.650598 -0.647771 0
0.610457 -0.968145 0
0.778048 -0.909923 0
0.998592 -0.679343 0
1.121803 -0.484402 0
1.207798 -0.269597 0
1.306851 -0.035818 0
1.385686 0.179287 0
1.412820 0.325639 0
1.387267 0.403655 0
1.364371 0.437764 0
1.395962 0.440570 0
1.462700 0.401278 0
1.434893 0.327171 0
1.289223 0.226295 0
1.090672 0.141036 0
0.849984 0.158697 0
0.670978 0.148599 0
0.596192 -0.012887 0
0.563666 -0.250913 0
0.624220 -0.421643 0
0.810072 -0.408816 0
0.979020 -0.333433 0
1.084116 -0.295225 0
1.175693 -0.253691 0
1.260144 -0.188927 0
1.311437 -0.104911 0
1.325596 -0.022016 0
1.304172 0.030712 0
1.244606 0.019969 0
1.143481 0.031319 0
1.064184 0.153506 0
1.008860 0.291440 0
0.996816 0.306035 0
1.039164 0.220511 0
1.083403 0.127297 0
1.096098 0.045416 0
1.053709 -0.034303 0
0.974111 -0.117047 0
0.933908 -0.171429 0
0.964064 -0.175449 0
1.036344 -0.145872 0
1.093941 -0.102049 0
1.127304 -0.042585 0
1.141097 0.038963 0
1.109133 0.131018 0
1.059329 0.236252 0
0.989986 0.344399 0
0.987705 0.384664 0
1.056264 0.303283 0
0.978581 0.139135 0
0.778420 0.032306 0
0.605572 0.012591 0
0.490782 0.003005 0
0.430811 -0.013213 0
0.436747 -0.033702 0
0.485128 -0.049868 0
0.551954 -0.031176 0
0.558193 -0.007400 0
1.000000 -0.000312 0
1.000200 -0.001083 0
1.000728 -0.002166 0
1.001561 -0.003618 0
1.002737 -0.005511 0
1.004345 -0.007898 0
1.006484 -0.010802 0
1.009254 -0.014254 0
1.012722 -0.018339 0
1.016961 -0.023206 0
1.022097 -0.029072 0
1.028308 -0.036221 0
1.035831 -0.045020 0
1.044945 -0.055982 0
1.056131 -0.069784 0
1.070131 -0.087223 0
1.087959 -0.109227 0
1.111198 -0.136822 0
1.141889 -0.171203 0
1.185922 -0.212755 0
1.249522 -0.254963 0
1.332819 -0.299870 0
1.487768 -0.299837 0
1.587821 -0.235113 0
1.638492 -0.157885 0
1.663833 -0.085583 0
1.673067 -0.018720 0
1.666628 0.042455 0
1.648491 0.097341 0
1.628022 0.151774 0
1.596527 0.209868 0
1.527430 0.266564 0
1.434710 0.313811 0
1.336381 0.354779 0
1.239652 0.402905 0
1.206699 0.439042 0
1.147125 0.425716 0
0.850767 0.414136 0
0.548985 0.585698 0
0.599214 0.576897 0
0.884938 0.144410 0
1.074423 -0.238664 0
1.039174 -0.506938 0
0.849158 -0.826192 0
0.711952 -1.007061 0
0.807435 -0.854639 0
0.935408 -0.557137 0
1.014027 -0.327096 0
1.067519 -0.114820 0
1.104766 0.115586 0
1.138460 0.299798 0
1.181814 0.371280 0
1.260819 0.333690 0
1.334709 0.280325 0
1.320233 0.314912 0
1.189456 0.441027 0
0.945864 0.573581 0
0.607850 0.603719 0
0.356475 0.424949 0
0.388979 0.132893 0
0.588588 -0.082504 0
0.724574 -0.278837 0
0.730744 -0.504092 0
0.775529 -0.575995 0
0.878234 -0.478631 0
0.955017 -0.389122 0
1.039950 -0.339865 0
1.127149 -0.257191 0
1.178151 -0.135628 0
1.188199 -0.013457 0
1.164313 0.098105 0
1.094493 0.207041 0
0.957214 0.274268 0
0.832152 0.288160 0
0.793116 0.257120 0
0.860753 0.159347 0
0.948921 0.068977 0
1.014499 0.039363 0
1.033118 0.052404 0
1.002074 0.067690 0
0.928338 -0.000049 0
0.843615 -0.142972 0
0.809429 -0.250260 0
0.850434 -0.247592 0
0.935301 -0.166524 0
1.027347 -0.071770 0
1.114685 0.053044 0
1.154537 0.165802 0
1.110534 0.198147 0
1.042618 0.213521 0
1.030734 0.262603 0
1.032205 0.318466 0
0.968855 0.343893 0
0.843441 0.295812 0
0.764815 0.194071 0
0.744626 0.104777 0
0.744973 0.030659 0
0.722092 -0.036504 0
0.672683 -0.078260 0
0.624153 -0.050369 0
0.617578 -0.010719 0
1.000000 -0.000385 0
0.999990 -0.001383 0
1.000419 -0.002756 0
1.001041 -0.004496 0
1.001881 -0.006744 0
1.003093 -0.009588 0
1.004805 -0.013036 0
1.007071 -0.017085 0
1.009866 -0.021803 0
1.013159 -0.027371 0
1.017023 -0.034061 0
1.021578 -0.042206 0
1.027007 -0.052192 0
1.033293 -0.064646 0
1.040771 -0.080497 0
1.050114 -0.100802 0
1.062014 -0.126930 0
1.078078 -0.160331 0
1.097613 -0.205320 0
1.133773 -0.265090 0
1.186717 -0.329628 0
1.280598 -0.440580 0
1.556189 -0.453053 0
1.639042 -0.313651 0
1.646619 -0.191046 0
1.647963 -0.099278 0
1.652395 -0.018440 0
1.649224 0.055430 0
1.633348 0.113843 0
1.643882 0.171360 0
1.681491 0.262575 0
1.642993 0.363648 0
1.532924 0.429111 0
1.387264 0.459555 0
1.254210 0.418534 0
1.151226 0.394106 0
1.082253 0.551841 0
0.967597 0.734746 0
0.863453 0.654538 0
0.984107 0.372594 0
0.994180 0.026407 0
0.882973 -0.252479 0
0.821115 -0.422504 0
0.768886 -0.640921 0
0.665422 -0.868199 0
0.617679 -0.902797 0
0.721543 -0.690992 0
0.831768 -0.401706 0
0.890039 -0.126556 0
0.955286 0.108347 0
1.019103 0.248594 0
1.046602 0.281298 0
1.008393 0.284871 0
0.910207 0.381158 0
0.746951 0.546533 0
0.548774 0.701541 0
0.384250 0.807904 0
0.323943 0.730426 0
0.370820 0.377569 0
0.435550 -0.083512 0
0.568377 -0.348480 0
0.738264 -0.393066 0
0.737029 -0.472596 0
0.708641 -0.556305 0
0.740318 -0.512920 0
0.749863 -0.456940 0
0.762388 -0.425821 0
0.834961 -0.327126 0
0.952849 -0.165960 0
1.034021 -0.008177 0
1.039378 0.124419 0
1.008343 0.227068 0
1.001816 0.293660 0
0.995496 0.317605 0
0.979020 0.262840 0
0.920958 0.150230 0
0.829193 0.066765 0
0.745460 0.043099 0
0.686413 0.057841 0
0.691791 0.070477 0
0.765952 0.041411 0
0.834986 -0.052521 0
0.875827 -0.182270 0
0.896527 -0.271746 0
0.886899 -0.278963 0
0.839859 -0.221971 0
0.799909 -0.088229 0
0.764860 0.135167 0
0.697904 0.348169 0
0.644140 0.424196 0
0.637701 0.395075 0
0.631390 0.365159 0
0.621879 0.327896 0
0.644557 0.236343 0
0.684571 0.111402 0
0.727353 0.022844 0
0.768074 0.009319 0
0.773446 0.038584 0
0.732394 0.048068 0
0.675280 0.023926 0
0.667197 0.005182 0
1.000000 -0.000315 0
1.000002 -0.001518 0
1.000020 -0.003223 0
1.000503 -0.005084 0
1.000988 -0.007568 0
1.001726 -0.010828 0
1.002930 -0.014784 0
1.004685 -0.019319 0
1.006828 -0.024431 0
1.009102 -0.030366 0
1.011559 -0.037494 0
1.014246 -0.046208 0
1.017566 -0.056738 0
1.020662 -0.069748 0
1.023748 -0.086607 0
1.027804 -0.108469 0
1.032590 -0.137194 0
1.040590 -0.172423 0
1.040945 -0.226900 0
1.065439 -0.301861 0
1.079728 -0.401791 0
1.217914 -0.669345 0
1.555616 -0.658284 0
1.451280 -0.325546 0
1.330455 -0.166810 0
1.265942 -0.091363 0
1.271500 -0.019984 0
1.314375 0.061500 0
1.278194 0.102681 0
1.309890 0.103629 0
1.562010 0.210756 0
1.654096 0.415131 0
1.603710 0.569541 0
1.470822 0.633493 0
1.305883 0.638943 0
1.069850 0.611000 0
0.866329 0.609346 0
0.891300 0.632937 0
0.981351 0.569189 0
0.926810 0.446172 0
0.800616 0.245545 0
0.656744 -0.065597 0
0.607614 -0.392850 0
0.609479 -0.670497 0
0.590665 -0.855852 0
0.554238 -0.910758 0
0.578642 -0.771223 0
0.666443 -0.495590 0
0.758396 -0.238336 0
0.865553 -0.013476 0
0.929921 0.208484 0
0.897964 0.381992 0
0.774434 0.470087 0
0.623689 0.541769 0
0.495856 0.676347 0
0.397017 0.803730 0
0.387565 0.798414 0
0.525855 0.617150 0
0.721785 0.313344 0
0.818084 -0.064662 0
0.739799 -0.385216 0
0.592798 -0.447487 0
0.469127 -0.474467 0
0.424293 -0.579282 0
0.533032 -0.519852 0
0.561197 -0.411191 0
0.470019 -0.424962 0
0.422918 -0.447651 0
0.530939 -0.334687 0
0.696094 -0.099985 0
0.789865 0.123783 0
0.796047 0.244603 0
0.773925 0.287115 0
0.744187 0.310956 0
0.671689 0.331658 0
0.557405 0.309174 0
0.423269 0.244475 0
0.296673 0.182142 0
0.215740 0.106072 0
0.229845 -0.011849 0
0.348155 -0.143247 0
0.501658 -0.252849 0
0.637858 -0.311802 0
0.741105 -0.258666 0
0.749834 -0.109859 0
0.652310 0.015218 0
0.484268 0.128041 0
0.379695 0.267805 0
0.454713 0.318864 0
0.598362 0.273722 0
0.644591 0.275350 0
0.631155 0.334284 0
0.629539 0.330722 0
0.631302 0.233117 0
0.603235 0.111273 0
0.556424 0.021270 0
0.529164 -0.015438 0
0.548526 -0.000827 0
0.597992 0.019904 0
0.623837 0.014824 0
0.625736 0.005031 0
1.000000 -0.000400 0
1.000123 -0.001419 0
0.999795 -0.003262 0
1.000065 -0.005468 0
1.000054 -0.007971 0
1.000241 -0.011534 0
1.000918 -0.015998 0
1.002143 -0.020986 0
1.003824 -0.026223 0
1.005045 -0.032105 0
1.006089 -0.039208 0
1.006509 -0.048215 0
1.008474 -0.058610 0
1.008150 -0.070830 0
1.006347 -0.087641 0
1.006263 -0.109645 0
1.004591 -0.139717 0
0.998426 -0.168687 0
0.992533 -0.230169 0
0.985540 -0.303874 0
0.961950 -0.482104 0
1.043525 -0.916469 0
0.754047 -0.597929 0
-0.002352 0.000000 0
-0.002276 0.000000 0
0.461281 -0.034614 0
0.420051 -0.066875 0
0.241819 0.048735 0
0.310470 0.118327 0
0.371648 -0.112457 0
1.107536 -0.081631 0
1.378097 0.321948 0
1.426500 0.612385 0
1.414076 0.757383 0
1.325306 0.819508 0
1.169288 0.833661 0
1.017914 0.730392 0
0.955460 0.619726 0
0.854219 0.619030 0
0.720801 0.553331 0
0.671512 0.296474 0
0.691392 -0.059475 0
0.731089 -0.375237 0
0.733725 -0.623970 0
0.672158 -0.812955 0
0.599057 -0.890772 0
0.571810 -0.803195 0
0.637372 -0.581458 0
0.738918 -0.325664 0
0.796857 -0.063175 0
0.797018 0.216185 0
0.766146 0.436788 0
0.716138 0.559148 0
0.625090 0.659737 0
0.533565 0.773206 0
0.523682 0.809834 0
0.628610 0.679067 0
0.787995 0.396208 0
0.929442 0.085342 0
1.002501 -0.101524 0
0.934730 -0.123192 0
0.745298 -0.122393 0
0.617466 -0.304090 0
0.436902 -0.620208 0
0.418867 -0.649822 0
0.524717 -0.393926 0
0.563034 -0.287542 0
0.447593 -0.388045 0
0.319922 -0.439135 0
0.343205 -0.267103 0
0.447253 0.024466 0
0.524207 0.243009 0
0.536314 0.345521 0
0.495767 0.419841 0
0.425696 0.449622 0
0.367703 0.398649 0
0.300170 0.327496 0
0.229287 0.250627 0
0.207584 0.124667 0
0.229352 -0.061939 0
0.256092 -0.230404 0
0.304394 -0.342226 0
0.350704 -0.421720 0
0.410279 -0.383724 0
0.504834 -0.190170 0
0.597024 0.043592 0
0.658806 0.184383 0
0.744348 0.164720 0
0.829970 0.129499 0
0.817616 0.234314 0
0.722714 0.362278 0
0.656369 0.380208 0
0.650445 0.327747 0
0.668880 0.262643 0
0.675093 0.186277 0
0.653896 0.096912 0
0.606393 0.017213 0
0.561107 -0.030247 0
0.555302 -0.027246 0
0.570345 -0.003822 0
0.572197 0.001796 0
1.000000 -0.000450 0
1.000086 -0.001328 0
0.999869 -0.003169 0
0.999451 -0.005347 0
0.999469 -0.007748 0
0.999806 -0.011696 0
0.999726 -0.016690 0
0.999309 -0.022228 0
1.000165 -0.027335 0
1.000407 -0.032633 0
1.001346 -0.038960 0
0.999219 -0.048595 0
1.000095 -0.058380 0
0.995688 -0.067621 0
0.997496 -0.084720 0
0.985339 -0.106714 0
0.985178 -0.129357 0
0.956811 -0.160365 0
0.964779 -0.214014 0
0.884236 -0.271279 0
0.899291 -0.459777 0
0.605999 -0.549936 0
0.000000 0.002871 0
-0.624733 0.240012 0
-0.519268 0.000000 0
0.000000 0.000000 0
-0.045902 0.188188 0
-0.075798 0.171080 0
-0.230864 -0.027148 0
-0.122828 -0.693436 0
0.199168 -0.795692 0
0.835669 0.096167 0
1.040358 0.533562 0
1.152112 0.734688 0
1.166621 0.883733 0
1.149665 0.918393 0
1.136140 0.823175 0
0.972714 0.796634 0
0.773049 0.803849 0
0.679918 0.628881 0
0.709910 0.274957 0
0.757613 -0.125173 0
0.789855 -0.435180 0
0.817190 -0.611564 0
0.807896 -0.721182 0
0.735251 -0.810408 0
0.666564 -0.809536 0
0.665414 -0.662695 0
0.713090 -0.397818 0
0.752098 -0.071573 0
0.772934 0.239197 0
0.789506 0.462875 0
0.782984 0.611145 0
0.756312 0.724343 0
0.766052 0.777758 0
0.840890 0.708687 0
0.968075 0.534103 0
1.068447 0.316320 0
1.071590 0.098840 0
0.947787 -0.069947 0
0.778625 -0.128012 0
0.848021 -0.130222 0
0.979756 -0.166069 0
0.905585 -0.380682 0
0.596655 -0.607667 0
0.523041 -0.555357 0
0.672304 -0.347836 0
0.774721 -0.204538 0
0.659985 -0.230298 0
0.438914 -0.227315 0
0.348998 -0.057218 0
0.407467 0.155542 0
0.470998 0.315555 0
0.493688 0.421573 0
0.525589 0.459721 0
0.540525 0.434700 0
0.519351 0.382890 0
0.538608 0.274727 0
0.629019 0.106007 0
0.709658 -0.060359 0
0.723018 -0.218291 0
0.642063 -0.347463 0
0.536760 -0.417689 0
0.445012 -0.412798 0
0.434318 -0.296606 0
0.509651 -0.138758 0
0.626458 -0.019286 0
0.708393 0.096638 0
0.676134 0.245592 0
0.605780 0.380975 0
0.608234 0.436594 0
0.666511 0.406549 0
0.727909 0.318208 0
0.761540 0.208465 0
0.768573 0.126252 0
0.764688 0.089966 0
0.748448 0.077347 0
0.719118 0.050260 0
0.665075 0.010662 0
0.620873 -0.002075 0
0.617230 0.001363 0
1.000000 -0.000497 0
0.999985 -0.001301 0
0.999959 -0.002631 0
0.999372 -0.005072 0
0.999178 -0.008330 0
0.999548 -0.011794 0
0.999323 -0.015504 0
0.998238 -0.021428 0
0.996373 -0.027323 0
0.997299 -0.033287 0
0.996964 -0.038023 0
0.996159 -0.046965 0
0.989484 -0.055080 0
0.989600 -0.068231 0
0.985267 -0.077291 0
0.979933 -0.097328 0
0.957327 -0.111190 0
0.947017 -0.148288 0
0.907805 -0.157594 0
0.863840 -0.238386 0
0.780596 -0.203865 0
0.476470 -0.095339 0
0.361158 -0.070092 0
0.000000 0.000000 0
0.000000 0.000000 0
0.000000 0.000000 0
0.000000 0.000000 0
0.190554 0.236062 0
0.173640 0.165358 0
0.106750 -0.542488 0
-0.386954 -1.040128 0
0.177974 -0.519241 0
0.597422 0.295944 0
0.818245 0.631122 0
0.933850 0.821956 0
1.019666 0.864144 0
1.001861 0.907346 0
0.848235 0.982819 0
0.731199 0.911828 0
0.758883 0.616473 0
0.819527 0.218782 0
0.820813 -0.139417 0
0.771788 -0.434812 0
0.747569 -0.642009 0
0.788604 -0.731013 0
0.811298 -0.749436 0
0.765764 -0.733355 0
0.718144 -0.627981 0
0.707322 -0.412346 0
0.718330 -0.123017 0
0.753359 0.178780 0
0.801606 0.426740 0
0.848609 0.592344 0
0.909973 0.676672 0
0.994847 0.688630 0
1.093883 0.607814 0
1.165004 0.451512 0
1.191285 0.292695 0
1.167227 0.206005 0
1.091236 0.191443 0
0.954195 -0.023425 0