# vtk DataFile Version 2.0
generated by CFD-lab course output (written by Tobias Neckel) 
ASCII

DATASET STRUCTURED_GRID
DIMENSIONS  101 21 1 
POINTS 2121 float

0.000000 0.000000 0
0.100000 0.000000 0
0.200000 0.000000 0
0.300000 0.000000 0
0.400000 0.000000 0
0.500000 0.000000 0
0.600000 0.000000 0
0.700000 0.000000 0
0.800000 0.000000 0
0.900000 0.000000 0
1.000000 0.000000 0
1.100000 0.000000 0
1.200000 0.000000 0
1.300000 0.000000 0
1.400000 0.000000 0
1.500000 0.000000 0
1.600000 0.000000 0
1.700000 0.000000 0
1.800000 0.000000 0
1.900000 0.000000 0
2.000000 0.000000 0
2.100000 0.000000 0
2.200000 0.000000 0
2.300000 0.000000 0
2.400000 0.000000 0
2.500000 0.000000 0
2.600000 0.000000 0
2.700000 0.000000 0
2.800000 0.000000 0
2.900000 0.000000 0
3.000000 0.000000 0
3.100000 0.000000 0
3.200000 0.000000 0
3.300000 0.000000 0
3.400000 0.000000 0
3.500000 0.000000 0
3.600000 0.000000 0
3.700000 0.000000 0
3.800000 0.000000 0
3.900000 0.000000 0
4.000000 0.000000 0
4.100000 0.000000 0
4.200000 0.000000 0
4.300000 0.000000 0
4.400000 0.000000 0
4.500000 0.000000 0
4.600000 0.000000 0
4.700000 0.000000 0
4.800000 0.000000 0
4.900000 0.000000 0
5.000000 0.000000 0
5.100000 0.000000 0
5.200000 0.000000 0
5.300000 0.000000 0
5.400000 0.000000 0
5.500000 0.000000 0
5.600000 0.000000 0
5.700000 0.000000 0
5.800000 0.000000 0
5.900000 0.000000 0
6.000000 0.000000 0
6.100000 0.000000 0
6.200000 0.000000 0
6.300000 0.000000 0
6.400000 0.000000 0
6.500000 0.000000 0
6.600000 0.000000 0
6.700000 0.000000 0
6.800000 0.000000 0
6.900000 0.000000 0
7.000000 0.000000 0
7.100000 0.000000 0
7.200000 0.000000 0
7.300000 0.000000 0
7.400000 0.000000 0
7.500000 0.000000 0
7.600000 0.000000 0
7.700000 0.000000 0
7.800000 0.000000 0
7.900000 0.000000 0
8.000000 0.000000 0
8.100000 0.000000 0
8.200000 0.000000 0
8.300000 0.000000 0
8.400000 0.000000 0
8.500000 0.000000 0
8.600000 0.000000 0
8.700000 0.000000 0
8.800000 0.000000 0
8.900000 0.000000 0
9.000000 0.000000 0
9.100000 0.000000 0
9.200000 0.000000 0
9.300000 0.000000 0
9.400000 0.000000 0
9.500000 0.000000 0
9.600000 0.000000 0
9.700000 0.000000 0
9.800000 0.000000 0
9.900000 0.000000 0
10.000000 0.000000 0
0.000000 0.100000 0
0.100000 0.100000 0
0.200000 0.100000 0
0.300000 0.100000 0
0.400000 0.100000 0
0.500000 0.100000 0
0.600000 0.100000 0
0.700000 0.100000 0
0.800000 0.100000 0
0.900000 0.100000 0
1.000000 0.100000 0
1.100000 0.100000 0
1.200000 0.100000 0
1.300000 0.100000 0
1.400000 0.100000 0
1.500000 0.100000 0
1.600000 0.100000 0
1.700000 0.100000 0
1.800000 0.100000 0
1.900000 0.100000 0
2.000000 0.100000 0
2.100000 0.100000 0
2.200000 0.100000 0
2.300000 0.100000 0
2.400000 0.100000 0
2.500000 0.100000 0
2.600000 0.100000 0
2.700000 0.100000 0
2.800000 0.100000 0
2.900000 0.100000 0
3.000000 0.100000 0
3.100000 0.100000 0
3.200000 0.100000 0
3.300000 0.100000 0
3.400000 0.100000 0
3.500000 0.100000 0
3.600000 0.100000 0
3.700000 0.100000 0
3.800000 0.100000 0
3.900000 0.100000 0
4.000000 0.100000 0
4.100000 0.100000 0
4.200000 0.100000 0
4.300000 0.100000 0
4.400000 0.100000 0
4.500000 0.100000 0
4.600000 0.100000 0
4.700000 0.100000 0
4.800000 0.100000 0
4.900000 0.100000 0
5.000000 0.100000 0
5.100000 0.100000 0
5.200000 0.100000 0
5.300000 0.100000 0
5.400000 0.100000 0
5.500000 0.100000 0
5.600000 0.100000 0
5.700000 0.100000 0
5.800000 0.100000 0
5.900000 0.100000 0
6.000000 0.100000 0
6.100000 0.100000 0
6.200000 0.100000 0
6.300000 0.100000 0
6.400000 0.100000 0
6.500000 0.100000 0
6.600000 0.100000 0
6.700000 0.100000 0
6.800000 0.100000 0
6.900000 0.100000 0
7.000000 0.100000 0
7.100000 0.100000 0
7.200000 0.100000 0
7.300000 0.100000 0
7.400000 0.100000 0
7.500000 0.100000 0
7.600000 0.100000 0
7.700000 0.100000 0
7.800000 0.100000 0
7.900000 0.100000 0
8.000000 0.100000 0
8.100000 0.100000 0
8.200000 0.100000 0
8.300000 0.100000 0
8.400000 0.100000 0
8.500000 0.100000 0
8.600000 0.100000 0
8.700000 0.100000 0
8.800000 0.100000 0
8.900000 0.100000 0
9.000000 0.100000 0
9.100000 0.100000 0
9.200000 0.100000 0
9.300000 0.100000 0
9.400000 0.100000 0
9.500000 0.100000 0
9.600000 0.100000 0
9.700000 0.100000 0
9.800000 0.100000 0
9.900000 0.100000 0
10.000000 0.100000 0
0.000000 0.200000 0
0.100000 0.200000 0
0.200000 0.200000 0
0.300000 0.200000 0
0.400000 0.200000 0
0.500000 0.200000 0
0.600000 0.200000 0
0.700000 0.200000 0
0.800000 0.200000 0
0.900000 0.200000 0
1.000000 0.200000 0
1.100000 0.200000 0
1.200000 0.200000 0
1.300000 0.200000 0
1.400000 0.200000 0
1.500000 0.200000 0
1.600000 0.200000 0
1.700000 0.200000 0
1.800000 0.200000 0
1.900000 0.200000 0
2.000000 0.200000 0
2.100000 0.200000 0
2.200000 0.200000 0
2.300000 0.200000 0
2.400000 0.200000 0
2.500000 0.200000 0
2.600000 0.200000 0
2.700000 0.200000 0
2.800000 0.200000 0
2.900000 0.200000 0
3.000000 0.200000 0
3.100000 0.200000 0
3.200000 0.200000 0
3.300000 0.200000 0
3.400000 0.200000 0
3.500000 0.200000 0
3.600000 0.200000 0
3.700000 0.200000 0
3.800000 0.200000 0
3.900000 0.200000 0
4.000000 0.200000 0
4.100000 0.200000 0
4.200000 0.200000 0
4.300000 0.200000 0
4.400000 0.200000 0
4.500000 0.200000 0
4.600000 0.200000 0
4.700000 0.200000 0
4.800000 0.200000 0
4.900000 0.200000 0
5.000000 0.200000 0
5.100000 0.200000 0
5.200000 0.200000 0
5.300000 0.200000 0
5.400000 0.200000 0
5.500000 0.200000 0
5.600000 0.200000 0
5.700000 0.200000 0
5.800000 0.200000 0
5.900000 0.200000 0
6.000000 0.200000 0
6.100000 0.200000 0
6.200000 0.200000 0
6.300000 0.200000 0
6.400000 0.200000 0
6.500000 0.200000 0
6.600000 0.200000 0
6.700000 0.200000 0
6.800000 0.200000 0
6.900000 0.200000 0
7.000000 0.200000 0
7.100000 0.200000 0
7.200000 0.200000 0
7.300000 0.200000 0
7.400000 0.200000 0
7.500000 0.200000 0
7.600000 0.200000 0
7.700000 0.200000 0
7.800000 0.200000 0
7.900000 0.200000 0
8.000000 0.200000 0
8.100000 0.200000 0
8.200000 0.200000 0
8.300000 0.200000 0
8.400000 0.200000 0
8.500000 0.200000 0
8.600000 0.200000 0
8.700000 0.200000 0
8.800000 0.200000 0
8.900000 0.200000 0
9.000000 0.200000 0
9.100000 0.200000 0
9.200000 0.200000 0
9.300000 0.200000 0
9.400000 0.200000 0
9.500000 0.200000 0
9.600000 0.200000 0
9.700000 0.200000 0
9.800000 0.200000 0
9.900000 0.200000 0
10.000000 0.200000 0
0.000000 0.300000 0
0.100000 0.300000 0
0.200000 0.300000 0
0.300000 0.300000 0
0.400000 0.300000 0
0.500000 0.300000 0
0.600000 0.300000 0
0.700000 0.300000 0
0.800000 0.300000 0
0.900000 0.300000 0
1.000000 0.300000 0
1.100000 0.300000 0
1.200000 0.300000 0
1.300000 0.300000 0
1.400000 0.300000 0
1.500000 0.300000 0
1.600000 0.300000 0
1.700000 0.300000 0
1.800000 0.300000 0
1.900000 0.300000 0
2.000000 0.300000 0
2.100000 0.300000 0
2.200000 0.300000 0
2.300000 0.300000 0
2.400000 0.300000 0
2.500000 0.300000 0
2.600000 0.300000 0
2.700000 0.300000 0
2.800000 0.300000 0
2.900000 0.300000 0
3.000000 0.300000 0
3.100000 0.300000 0
3.200000 0.300000 0
3.300000 0.300000 0
3.400000 0.300000 0
3.500000 0.300000 0
3.600000 0.300000 0
3.700000 0.300000 0
3.800000 0.300000 0
3.900000 0.300000 0
4.000000 0.300000 0
4.100000 0.300000 0
4.200000 0.300000 0
4.300000 0.300000 0
4.400000 0.300000 0
4.500000 0.300000 0
4.600000 0.300000 0
4.700000 0.300000 0
4.800000 0.300000 0
4.900000 0.300000 0
5.000000 0.300000 0
5.100000 0.300000 0
5.200000 0.300000 0
5.300000 0.300000 0
5.400000 0.300000 0
5.500000 0.300000 0
5.600000 0.300000 0
5.700000 0.300000 0
5.800000 0.300000 0
5.900000 0.300000 0
6.000000 0.300000 0
6.100000 0.300000 0
6.200000 0.300000 0
6.300000 0.300000 0
6.400000 0.300000 0
6.500000 0.300000 0
6.600000 0.300000 0
6.700000 0.300000 0
6.800000 0.300000 0
6.900000 0.300000 0
7.000000 0.300000 0
7.100000 0.300000 0
7.200000 0.300000 0
7.300000 0.300000 0
7.400000 0.300000 0
7.500000 0.300000 0
7.600000 0.300000 0
7.700000 0.300000 0
7.800000 0.300000 0
7.900000 0.300000 0
8.000000 0.300000 0
8.100000 0.300000 0
8.200000 0.300000 0
8.300000 0.300000 0
8.400000 0.300000 0
8.500000 0.300000 0
8.600000 0.300000 0
8.700000 0.300000 0
8.800000 0.300000 0
8.900000 0.300000 0
9.000000 0.300000 0
9.100000 0.300000 0
9.200000 0.300000 0
9.300000 0.300000 0
9.400000 0.300000 0
9.500000 0.300000 0
9.600000 0.300000 0
9.700000 0.300000 0
9.800000 0.300000 0
9.900000 0.300000 0
10.000000 0.300000 0
0.000000 0.400000 0
0.100000 0.400000 0
0.200000 0.400000 0
0.300000 0.400000 0
0.400000 0.400000 0
0.500000 0.400000 0
0.600000 0.400000 0
0.700000 0.400000 0
0.800000 0.400000 0
0.900000 0.400000 0
1.000000 0.400000 0
1.100000 0.400000 0
1.200000 0.400000 0
1.300000 0.400000 0
1.400000 0.400000 0
1.500000 0.400000 0
1.600000 0.400000 0
1.700000 0.400000 0
1.800000 0.400000 0
1.900000 0.400000 0
2.000000 0.400000 0
2.100000 0.400000 0
2.200000 0.400000 0
2.300000 0.400000 0
2.400000 0.400000 0
2.500000 0.400000 0
2.600000 0.400000 0
2.700000 0.400000 0
2.800000 0.400000 0
2.900000 0.400000 0
3.000000 0.400000 0
3.100000 0.400000 0
3.200000 0.400000 0
3.300000 0.400000 0
3.400000 0.400000 0
3.500000 0.400000 0
3.600000 0.400000 0
3.700000 0.400000 0
3.800000 0.400000 0
3.900000 0.400000 0
4.000000 0.400000 0
4.100000 0.400000 0
4.200000 0.400000 0
4.300000 0.400000 0
4.400000 0.400000 0
4.500000 0.400000 0
4.600000 0.400000 0
4.700000 0.400000 0
4.800000 0.400000 0
4.900000 0.400000 0
5.000000 0.400000 0
5.100000 0.400000 0
5.200000 0.400000 0
5.300000 0.400000 0
5.400000 0.400000 0
5.500000 0.400000 0
5.600000 0.400000 0
5.700000 0.400000 0
5.800000 0.400000 0
5.900000 0.400000 0
6.000000 0.400000 0
6.100000 0.400000 0
6.200000 0.400000 0
6.300000 0.400000 0
6.400000 0.400000 0
6.500000 0.400000 0
6.600000 0.400000 0
6.700000 0.400000 0
6.800000 0.400000 0
6.900000 0.400000 0
7.000000 0.400000 0
7.100000 0.400000 0
7.200000 0.400000 0
7.300000 0.400000 0
7.400000 0.400000 0
7.500000 0.400000 0
7.600000 0.400000 0
7.700000 0.400000 0
7.800000 0.400000 0
7.900000 0.400000 0
8.000000 0.400000 0
8.100000 0.400000 0
8.200000 0.400000 0
8.300000 0.400000 0
8.400000 0.400000 0
8.500000 0.400000 0
8.600000 0.400000 0
[...]
POINT_DATA 2121 

VECTORS velocity float
0.500000 0.000000 0
0.000000 0.000000 0
0.000006 0.000000 0
0.000018 0.000000 0
0.000037 0.000000 0
0.000060 0.000000 0
0.000088 0.000000 0
0.000128 0.000000 0
0.000119 0.000000 0
0.000143 0.000000 0
0.000170 0.000000 0
0.000193 0.000000 0
0.000217 0.000000 0
0.000249 0.000000 0
0.000289 0.000000 0
0.000338 0.000000 0
0.000393 0.000000 0
0.000453 0.000000 0
0.000519 0.000000 0
0.000585 0.000000 0
0.000643 0.000000 0
0.000677 0.000000 0
0.000662 0.000000 0
0.000566 0.000000 0
0.000342 0.000000 0
-0.000015 0.000000 0
-0.000492 0.000000 0
-0.001098 0.000000 0
-0.001876 0.000000 0
-0.002862 0.000000 0
-0.004005 0.000000 0
-0.005108 0.000000 0
-0.005770 0.000000 0
-0.005382 0.000000 0
-0.003602 0.000000 0
-0.000894 0.000000 0
0.001895 0.000000 0
0.004090 0.000000 0
0.005795 0.000000 0
0.006912 0.000000 0
0.007273 0.000000 0
0.006702 0.000000 0
0.008583 0.000000 0
0.008343 0.000000 0
0.002777 0.000000 0
-0.003837 0.000000 0
-0.007984 0.000000 0
-0.008442 0.000000 0
-0.010683 0.000000 0
-0.011948 0.000000 0
-0.011381 0.000000 0
-0.010026 0.000000 0
-0.006399 0.000000 0
-0.001928 0.000000 0
0.002528 0.000000 0
0.005937 0.000000 0
0.008204 0.000000 0
0.009529 0.000000 0
0.009871 0.000000 0
0.009102 0.000000 0
0.007091 0.000000 0
0.003051 0.000000 0
-0.002123 0.000000 0
-0.000683 0.000000 0
0.001098 0.000000 0
-0.003288 0.000000 0
-0.009810 0.000000 0
-0.007360 0.000000 0
0.002467 0.000000 0
0.009994 0.000000 0
0.010082 0.000000 0
0.006514 0.000000 0
0.002846 0.000000 0
0.000592 0.000000 0
-0.000367 0.000000 0
-0.000705 0.000000 0
-0.000855 0.000000 0
-0.000972 0.000000 0
-0.000955 0.000000 0
-0.000848 0.000000 0
-0.000917 0.000000 0
0.000121 0.000000 0
0.009796 0.000000 0
0.018666 0.000000 0
0.006645 0.000000 0
-0.000355 0.000000 0
-0.000604 0.000000 0
0.000147 0.000000 0
0.001423 0.000000 0
0.003057 0.000000 0
0.004438 0.000000 0
0.005467 0.000000 0
0.006186 0.000000 0
0.006405 0.000000 0
0.006264 0.000000 0
0.005893 0.000000 0
0.005242 0.000000 0
0.004617 0.000000 0
0.003978 0.000000 0
0.003076 0.000000 0
0.002741 0.000000 0
1.000000 0.000304 0
1.000072 0.000635 0
1.000292 0.000587 0
1.000729 0.000394 0
1.001442 0.000118 0
1.002498 -0.000256 0
1.003992 -0.000784 0
1.006054 -0.001524 0
1.008852 -0.002452 0
1.012583 -0.003558 0
1.017497 -0.004960 0
1.023927 -0.006778 0
1.032284 -0.009072 0
1.043076 -0.011928 0
1.056926 -0.015467 0
1.074597 -0.019814 0
1.096980 -0.025040 0
1.125042 -0.031082 0
1.159663 -0.037616 0
1.201334 -0.043907 0
1.249656 -0.048655 0
1.302466 -0.050090 0
1.355526 -0.046331 0
1.401375 -0.036962 0
1.434017 -0.023914 0
1.451502 -0.009763 0
1.454019 0.003348 0
1.443770 0.013579 0
1.424283 0.019103 0
1.401223 0.018167 0
1.382406 0.010022 0
1.376332 -0.003968 0
1.389240 -0.019325 0
1.421279 -0.027917 0
1.458175 -0.023150 0
1.481958 -0.005647 0
1.480120 0.018268 0
1.451649 0.041878 0
1.401329 0.062038 0
1.333518 0.077296 0
1.253532 0.083560 0
1.167100 0.085605 0
1.076930 0.109301 0
0.976348 0.111775 0
0.881549 0.052735 0
0.849551 -0.023647 0
0.869716 -0.076225 0
0.926162 -0.090895 0
1.005670 -0.100468 0
1.107453 -0.114744 0
1.225012 -0.115293 0
1.340506 -0.103117 0
1.440443 -0.074992 0
1.508739 -0.035568 0
1.542593 0.004699 0
1.539093 0.039070 0
1.501317 0.064665 0
1.436621 0.082057 0
1.356066 0.089816 0
1.269422 0.086068 0
1.182707 0.067580 0
1.113790 0.029029 0
1.108850 -0.010729 0
1.168917 -0.013815 0
1.193397 -0.005174 0
1.173463 -0.027081 0
1.134690 -0.061268 0
1.081227 -0.049140 0
1.045139 0.014282 0
1.034165 0.063900 0
1.042312 0.061608 0
1.054562 0.028624 0
1.074061 -0.000205 0
1.100026 -0.016804 0
1.126565 -0.021743 0
1.148202 -0.019707 0
1.162743 -0.014620 0
1.169027 -0.008302 0
1.167871 -0.000897 0
1.156599 0.006516 0
1.131174 0.013841 0
1.088492 0.033087 0
1.014144 0.130607 0
0.944320 0.195231 0
0.859698 0.102963 0
0.759744 0.007398 0
0.685883 -0.009469 0
0.649441 0.000311 0
0.631958 0.012584 0
0.609988 0.024401 0
0.573222 0.035024 0
0.523901 0.045488 0
0.466788 0.052825 0
0.408729 0.055484 0
0.352527 0.054458 0
0.304607 0.052318 0
0.256194 0.042600 0
0.232128 0.037201 0
0.189758 0.019804 0
0.186481 0.002457 0
0.180222 0.005808 0
1.000000 -0.000070 0
1.000638 -0.000289 0
1.001641 -0.000655 0
1.002946 -0.001149 0
1.004564 -0.001768 0
1.006535 -0.002548 0
1.008919 -0.003554 0
1.011788 -0.004859 0
1.015253 -0.006528 0
1.019527 -0.008643 0
1.024874 -0.011341 0
1.031566 -0.014784 0
1.039965 -0.019146 0
1.050548 -0.024639 0
1.063922 -0.031517 0
1.080858 -0.040049 0
1.102334 -0.050441 0
1.129540 -0.062678 0
1.163802 -0.076288 0
1.206392 -0.089988 0
1.258067 -0.101127 0
1.317273 -0.105866 0
1.380970 -0.098905 0
1.435512 -0.078488 0
1.471622 -0.050124 0
1.489462 -0.020000 0
1.489476 0.007733 0
1.474506 0.029738 0
1.447149 0.042548 0
1.413338 0.041877 0
1.383039 0.024892 0
1.369189 -0.006833 0
1.383061 -0.044947 0
1.429506 -0.068936 0
1.488541 -0.060679 0
1.532105 -0.021944 0
1.541671 0.030310 0
1.516107 0.078792 0
1.465530 0.118133 0
1.396065 0.147799 0
1.313257 0.166420 0
1.220340 0.176605 0
1.118797 0.190756 0
1.033018 0.195384 0
0.994110 0.126800 0
0.921675 0.011837 0
0.824150 -0.076607 0
0.765093 -0.135951 0
0.769816 -0.181288 0
0.849044 -0.219338 0
0.999902 -0.233049 0
1.153501 -0.215429 0
1.268418 -0.168231 0
1.357456 -0.102146 0
1.426968 -0.030350 0
1.466909 0.041278 0
1.475530 0.102475 0
1.451775 0.145253 0
1.400025 0.167201 0
1.330292 0.173362 0
1.255059 0.155636 0
1.173813 0.073861 0
1.068329 -0.055123 0
0.986374 -0.084543 0
0.956157 -0.004542 0
0.967285 0.058712 0
0.955691 0.092240 0
0.896065 0.089556 0
0.871203 0.047068 0
0.909872 0.002833 0
0.975773 -0.020390 0
1.030446 -0.031743 0
1.077860 -0.045458 0
1.123014 -0.052498 0
1.163515 -0.048170 0
1.193725 -0.036173 0
1.212773 -0.020820 0
1.215973 -0.005124 0
1.205771 0.012431 0
1.172258 0.036699 0
1.129205 0.068110 0
1.118208 0.117031 0
1.050629 0.144172 0
0.962669 0.154446 0
0.913704 0.184574 0
0.877826 0.173813 0
0.851362 0.110299 0
0.797513 0.053920 0
0.703794 0.039447 0
0.597324 0.058729 0
0.508088 0.086080 0
0.441582 0.106425 0
0.390654 0.115163 0
0.346727 0.114251 0
0.302166 0.104111 0
0.272692 0.096321 0
0.226363 0.072468 0
0.220670 0.066425 0
0.191757 0.045635 0
0.150469 0.009524 0
0.144168 0.011834 0
1.000000 -0.000332 0
1.000463 -0.001004 0
1.001287 -0.001722 0
1.002419 -0.002529 0
1.003844 -0.003470 0
1.005577 -0.004610 0
1.007662 -0.006037 0
1.010163 -0.007858 0
1.013188 -0.010190 0
1.016900 -0.013178 0
1.021506 -0.016998 0
1.027253 -0.021868 0
1.034451 -0.028053 0
1.043507 -0.035884 0
1.054960 -0.045776 0
1.069540 -0.058223 0
1.088322 -0.073721 0
1.112831 -0.092549 0
1.145021 -0.114466 0
1.187556 -0.138170 0
1.243547 -0.159534 0
1.312723 -0.172992 0
1.400740 -0.164570 0
1.468566 -0.127614 0
1.508733 -0.077864 0
1.525473 -0.027618 0
1.521791 0.018304 0
1.497179 0.055907 0
1.454867 0.080270 0
1.400007 0.082277 0
1.344949 0.054172 0
1.312480 -0.003990 0
1.323098 -0.079643 0
1.392030 -0.133397 0
1.491187 -0.125749 0
1.573602 -0.058776 0
1.600833 0.034266 0
1.573866 0.118020 0
1.511911 0.182082 0
1.437167 0.229570 0
1.355259 0.259285 0
1.260337 0.280066 0
1.156119 0.296625 0
1.071367 0.236464 0
0.932083 0.164079 0
0.703573 0.146314 0
0.551475 0.080358 0
0.468709 -0.036559 0
0.405786 -0.184418 0
0.432785 -0.344829 0
0.574170 -0.419750 0
0.773654 -0.371633 0
0.956686 -0.278946 0
1.094022 -0.194117 0
1.178592 -0.104753 0
1.238377 -0.009491 0
1.290342 0.079800 0
1.321348 0.157563 0
1.321713 0.211300 0
1.291766 0.231035 0
1.236238 0.224060 0
1.175076 0.215761 0
1.069642 0.176711 0
0.784118 0.098358 0
0.624314 0.013916 0
0.683580 -0.026613 0
0.816532 0.009954 0
0.905900 0.035350 0
0.914514 0.000476 0
0.871186 -0.040668 0
0.818912 -0.058963 0
0.799349 -0.073461 0
0.815837 -0.092772 0
0.864337 -0.102457 0
0.931643 -0.092453 0
1.002495 -0.068963 0
1.061622 -0.036867 0
1.106497 -0.001300 0
1.135976 0.042817 0
1.150153 0.083081 0
1.120061 0.067890 0
1.026002 0.111662 0
0.937974 0.286145 0
0.879223 0.332153 0
0.892067 0.187803 0
0.912642 0.069737 0
0.866984 0.070840 0
0.755377 0.147875 0
0.622095 0.212768 0
0.527271 0.220101 0
0.498156 0.190761 0
0.500636 0.162917 0
0.497792 0.147674 0
0.486731 0.143966 0
0.471437 0.128487 0
0.452225 0.128115 0
0.429999 0.094615 0
0.372296 0.071801 0
0.358240 0.089998 0
0.321252 0.050040 0
0.316005 0.017720 0
1.000000 -0.000532 0
1.000353 -0.001575 0
1.001017 -0.002610 0
1.001956 -0.003705 0
1.003147 -0.004926 0
1.004587 -0.006366 0
1.006299 -0.008140 0
1.008333 -0.010385 0
1.010773 -0.013264 0
1.013742 -0.016961 0
1.017405 -0.021694 0
1.021948 -0.027728 0
1.027599 -0.035398 0
1.034667 -0.045146 0
1.043560 -0.057549 0
1.054827 -0.073410 0
1.069523 -0.093730 0
1.089573 -0.119375 0
1.117155 -0.151012 0
1.157264 -0.188514 0
1.215626 -0.226292 0
1.297615 -0.263058 0
1.438966 -0.254746 0
1.525145 -0.186481 0
1.564048 -0.107031 0
1.576091 -0.033057 0
1.569923 0.036027 0
1.538645 0.096661 0
1.476462 0.139721 0
1.388846 0.151795 0
1.290258 0.112418 0
1.217115 0.015018 0
1.203347 -0.124497 0
1.291782 -0.237025 0
1.434652 -0.242250 0
1.591888 -0.131589 0
1.661975 0.030046 0
1.652737 0.167715 0
1.579364 0.254832 0
1.476290 0.304452 0
1.371063 0.343252 0
1.270719 0.375746 0
1.189192 0.379726 0
1.114907 0.419421 0
0.921688 0.494596 0
0.750039 0.392447 0
0.688871 0.158258 0
0.575148 0.009739 0
0.462194 -0.145363 0
0.390112 -0.387721 0
0.375504 -0.573917 0
0.465072 -0.597944 0
0.631538 -0.488597 0
0.799380 -0.324051 0
0.928900 -0.174705 0
1.020906 -0.070472 0
1.081113 0.019504 0
1.123545 0.113883 0
1.156324 0.196785 0
1.174029 0.258838 0
1.160964 0.272327 0
1.123292 0.240458 0
0.971092 0.335835 0
0.844934 0.360786 0
0.836933 0.095998 0
0.777990 -0.133505 0
0.696611 -0.130078 0
0.670899 -0.008424 0
0.636694 0.081783 0
0.564619 0.098436 0
0.491644 0.051448 0
0.451793 -0.028666 0
0.453223 -0.110445 0
0.492759 -0.168303 0
0.567622 -0.186327 0
0.664341 -0.166151 0
0.751418 -0.124822 0
0.814661 -0.079478 0
0.847572 -0.031226 0
0.866810 0.052614 0
0.857052 0.192260 0
0.788808 0.299116 0
0.803569 0.290948 0
0.930333 0.200350 0
0.951461 0.151152 0
0.818060 0.198891 0
0.645721 0.267560 0
0.540564 0.298805 0
0.532426 0.267548 0
0.576476 0.182663 0
0.603327 0.112709 0
0.594070 0.106783 0
0.582323 0.129061 0
0.589983 0.140600 0
0.599174 0.138611 0
0.549536 0.137752 0
0.508665 0.152390 0
0.430787 0.138176 0
0.376358 0.096672 0
0.387647 0.051752 0
0.383927 0.021493 0
1.000000 -0.000684 0
1.000252 -0.002021 0
1.000764 -0.003325 0
1.001511 -0.004659 0
1.002450 -0.006101 0
1.003558 -0.007762 0
1.004843 -0.009784 0
1.006330 -0.012332 0
1.008072 -0.015599 0
1.010152 -0.019810 0
1.012704 -0.025203 0
1.015833 -0.032061 0
1.019649 -0.040771 0
1.024335 -0.051843 0
1.030124 -0.065935 0
1.037028 -0.084186 0
1.045708 -0.108465 0
1.059262 -0.140179 0
1.077333 -0.182156 0
1.110144 -0.236640 0
1.159179 -0.299884 0
1.253509 -0.396330 0
1.510738 -0.392099 0
1.588880 -0.252695 0
1.595737 -0.128810 0
1.589488 -0.033493 0
1.585607 0.055751 0
1.568947 0.149368 0
1.510604 0.230069 0
1.388510 0.268481 0
1.136168 0.225903 0
1.010331 0.082921 0
0.926745 -0.154309 0
0.953007 -0.364703 0
1.125303 -0.425855 0
1.408608 -0.286098 0
1.556534 -0.026582 0
1.627411 0.200632 0
1.619887 0.358529 0
1.535505 0.437872 0
1.405284 0.464857 0
1.282094 0.461939 0
1.192635 0.452438 0
1.081220 0.503969 0
1.014541 0.528948 0
1.070367 0.379133 0
1.011765 0.255250 0
0.890698 0.190118 0
0.864119 0.000620 0
0.806076 -0.258138 0
0.648509 -0.494710 0
0.505586 -0.627665 0
0.482452 -0.613253 0
0.564087 -0.491479 0
0.696940 -0.326279 0
0.823791 -0.161704 0
0.911631 -0.022838 0
0.974346 0.082353 0
1.015977 0.160816 0
1.051488 0.226396 0
1.081167 0.274799 0
1.016802 0.405634 0
0.889871 0.455069 0
0.925617 0.232518 0
0.960444 0.080862 0
0.811927 0.113710 0
0.617273 0.117045 0
0.500926 0.095267 0
0.431299 0.106758 0
0.371241 0.104383 0
0.327005 0.053864 0
0.302359 -0.035039 0
0.301704 -0.133738 0
0.324367 -0.216856 0
0.373487 -0.264034 0
0.444557 -0.252759 0
0.518780 -0.187186 0
0.564718 -0.097455 0
0.593002 -0.009333 0
0.620545 0.073600 0
0.684652 0.145889 0
0.803304 0.165142 0
0.898605 0.144617 0
0.874146 0.184258 0
0.708997 0.300073 0
0.551370 0.375473 0
0.503537 0.348332 0
0.570096 0.261164 0
0.707027 0.176851 0
0.816613 0.149194 0
0.818368 0.173160 0
0.747714 0.183914 0
0.672340 0.151754 0
0.597244 0.127107 0
0.516543 0.168926 0
0.441753 0.218616 0
0.400195 0.213356 0
0.392038 0.204101 0
0.392503 0.133130 0
0.405419 0.042462 0
0.402505 0.024173 0
1.000000 -0.000784 0
1.000104 -0.002339 0
1.000472 -0.003870 0
1.001059 -0.005391 0
1.001755 -0.006974 0
1.002515 -0.008759 0
1.003350 -0.010912 0
1.004256 -0.013615 0
1.005234 -0.017085 0
1.006312 -0.021593 0
1.007658 -0.027376 0
1.009285 -0.034672 0
1.011102 -0.043900 0
1.013201 -0.055620 0
1.015802 -0.070241 0
1.017730 -0.088993 0
1.017794 -0.115963 0
1.025356 -0.151000 0
1.026374 -0.201893 0
1.047911 -0.270359 0
1.060049 -0.369657 0
1.169994 -0.614615 0
1.529133 -0.590117 0
1.452281 -0.271480 0
1.361768 -0.107639 0
1.323382 -0.022926 0
1.320616 0.056567 0
1.392404 0.171664 0
1.368816 0.320158 0
1.362504 0.526230 0
1.231117 0.490597 0
0.802867 0.224440 0
0.373009 -0.067172 0
0.270297 -0.435582 0
0.399523 -0.697851 0
0.880864 -0.562820 0
1.201815 -0.188756 0
1.339877 0.104363 0
1.436947 0.346739 0
1.462625 0.519056 0
1.415306 0.596663 0
1.327839 0.588396 0
1.197661 0.580602 0
1.055626 0.597517 0
1.049088 0.505450 0
1.038774 0.395223 0
0.922880 0.337928 0
0.900461 0.157386 0
0.910151 -0.060740 0
0.893438 -0.172110 0
0.803910 -0.273426 0
0.647178 -0.431886 0
0.517532 -0.547099 0
0.489194 -0.538538 0
0.543631 -0.434408 0
0.646235 -0.285162 0
0.757309 -0.131051 0
0.848827 0.009537 0
0.912155 0.119643 0
0.958193 0.193649 0
0.975538 0.307014 0
0.939549 0.431755 0
0.998854 0.427021 0
1.001342 0.290214 0
0.863626 0.209689 0
0.774369 0.209667 0
0.723162 0.180924 0
0.619298 0.177551 0
0.484447 0.211469 0
0.366796 0.202731 0
0.282861 0.120331 0
0.230192 -0.003364 0
0.201714 -0.132453 0
0.200222 -0.240086 0
0.228595 -0.306518 0
0.286204 -0.311445 0
0.374485 -0.244984 0
0.448776 -0.153701 0
0.521085 -0.087055 0
0.599165 -0.039039 0
0.678002 0.009498 0
0.727184 0.085160 0
0.679463 0.220103 0
0.534805 0.389955 0
0.427912 0.473923 0
0.457373 0.404345 0
0.573283 0.248828 0
0.686029 0.095308 0
0.755024 0.021025 0
0.807602 0.071316 0
0.866518 0.181600 0
0.899673 0.252803 0
0.883793 0.279524 0
0.815938 0.296389 0
0.733448 0.294094 0
0.700065 0.254092 0
0.676039 0.202096 0
0.639016 0.145860 0
0.619065 0.083283 0
0.585083 0.041741 0
0.579187 0.026614 0
1.000000 -0.000788 0
1.000010 -0.002493 0
1.000221 -0.004281 0
1.000597 -0.005943 0
1.001070 -0.007558 0
1.001506 -0.009357 0
1.001930 -0.011524 0
1.002323 -0.014217 0
1.002545 -0.017656 0
1.002730 -0.022233 0
1.002317 -0.028175 0
1.002919 -0.035506 0
1.002716 -0.044687 0
1.002916 -0.056542 0
1.000765 -0.070463 0
1.000373 -0.086178 0
0.994121 -0.116090 0
0.994160 -0.148759 0
0.975955 -0.204711 0
0.982493 -0.270315 0
0.936831 -0.421966 0
1.039717 -0.865413 0
0.750000 -0.589055 0
0.001364 0.000000 0
0.001727 0.000000 0
0.535787 0.007570 0
0.539708 -0.013271 0
0.401488 0.101168 0
0.862102 0.259968 0
0.796227 0.406179 0
0.882237 0.785540 0
0.341109 0.941028 0
0.049216 0.378261 0
-0.056541 -0.391217 0
0.027005 -1.036422 0
0.248748 -1.088389 0
0.752578 -0.485595 0
1.012964 -0.034500 0
1.139830 0.235782 0
1.212272 0.459514 0
1.261907 0.599645 0
1.227964 0.679585 0
1.115952 0.724652 0
1.085758 0.652542 0
1.099555 0.545801 0
0.915848 0.505342 0
0.729538 0.393564 0
0.588246 0.202847 0
0.479744 0.007643 0
0.461708 -0.151896 0
0.519103 -0.248450 0
0.550902 -0.341287 0
0.517426 -0.455268 0
0.483081 -0.517577 0
0.496431 -0.483320 0
0.559043 -0.375381 0
0.650209 -0.225430 0
0.744911 -0.072493 0
0.831936 0.051451 0
0.886121 0.163014 0
0.897298 0.293443 0
0.934900 0.382318 0
0.998082 0.393277 0
1.005345 0.367747 0
0.928732 0.307836 0
0.874058 0.254174 0
0.782043 0.272117 0
0.615872 0.333984 0
0.456399 0.359260 0
0.358420 0.305969 0
0.310884 0.190469 0
0.288789 0.046108 0
0.265934 -0.103767 0
0.226004 -0.243737 0
0.200387 -0.350017 0
0.220055 -0.398650 0
0.278417 -0.349760 0
0.363649 -0.244057 0
0.434816 -0.159723 0
0.470439 -0.083319 0
0.466082 0.017866 0
0.418538 0.163677 0
0.352765 0.336991 0
0.344346 0.435805 0
0.456080 0.377500 0
0.628673 0.230096 0
0.771480 0.119668 0
0.843395 0.079416 0
0.849414 0.055271 0
0.843128 0.037693 0
0.882842 0.081081 0
0.957912 0.166631 0
1.020388 0.235481 0
1.061499 0.277444 0
1.072061 0.284790 0
1.029645 0.276016 0
0.924678 0.274396 0
0.827857 0.261065 0
0.750237 0.187054 0
0.698961 0.082331 0
0.693416 0.034548 0
1.000000 -0.000795 0
0.999961 -0.002560 0
1.000048 -0.004457 0
1.000134 -0.006241 0
1.000427 -0.007883 0
1.000572 -0.009619 0
1.000771 -0.011730 0
1.000393 -0.014231 0
1.000737 -0.017492 0
0.999259 -0.021364 0
0.999692 -0.027565 0
0.997742 -0.035071 0
0.997830 -0.043896 0
0.992277 -0.053669 0
0.991095 -0.067697 0
0.982119 -0.082349 0
0.983766 -0.109750 0
0.953294 -0.132833 0
0.954153 -0.190226 0
0.885817 -0.231235 0
0.867871 -0.426881 0
0.662705 -0.513113 0
0.000000 -0.001183 0
-0.642151 0.192732 0
-0.562123 0.000000 0
0.000000 0.000000 0
0.006443 0.189740 0
-0.001932 -0.150730 0
-0.107200 -0.074583 0
-0.046582 0.506094 0
0.058517 0.945715 0
0.070653 1.057462 0
0.257168 0.330477 0
0.265722 -0.413372 0
0.283137 -1.003141 0
0.122944 -1.288393 0
0.402740 -0.952971 0
0.736256 -0.282889 0
0.926476 0.147431 0
1.027948 0.396980 0
1.056572 0.580972 0
1.044736 0.734351 0
1.079113 0.722809 0
1.126420 0.613915 0
0.955051 0.675360 0
0.728476 0.765241 0
0.527651 0.665531 0
0.384838 0.407180 0
0.327787 0.065798 0
0.321544 -0.211468 0
0.366625 -0.362621 0
0.442727 -0.430209 0
0.493021 -0.479277 0
0.496876 -0.517543 0
0.503282 -0.510370 0
0.540664 -0.438940 0
0.608559 -0.316918 0
0.693449 -0.172190 0
0.779864 -0.021567 0
0.840451 0.128286 0
0.887136 0.258235 0
0.949646 0.330972 0
1.001652 0.356576 0
1.043086 0.359564 0
1.063035 0.340977 0
1.002843 0.356356 0
0.829196 0.439110 0
0.662077 0.503196 0
0.563103 0.468922 0
0.537030 0.348246 0
0.565032 0.189961 0
0.609546 0.041586 0
0.612237 -0.069668 0
0.526433 -0.174540 0
0.403766 -0.300570 0
0.329503 -0.389476 0
0.297677 -0.388579 0
0.312654 -0.310102 0
0.341402 -0.193847 0
0.348227 -0.070308 0
0.332985 0.061395 0
0.321486 0.198473 0
0.366107 0.294289 0
0.506985 0.286634 0
0.694957 0.189591 0
0.841163 0.088939 0
0.915886 0.034099 0
0.958025 0.017367 0
0.991505 0.021285 0
1.003965 0.037880 0
1.001937 0.066807 0
1.003783 0.115248 0
1.006948 0.175928 0
1.004947 0.244707 0
0.977768 0.325938 0
0.911942 0.401465 0
0.852886 0.403874 0
0.837081 0.320291 0
0.853313 0.212170 0
0.852127 0.098553 0
0.855781 0.035797 0
1.000000 -0.000750 0
0.999941 -0.002542 0
0.999850 -0.004454 0
0.999901 -0.006323 0
0.999881 -0.007998 0
0.999957 -0.009703 0
0.999685 -0.011347 0
0.999199 -0.014183 0
0.998472 -0.016522 0
0.998425 -0.021188 0
0.997046 -0.026659 0
0.995111 -0.033644 0
0.991273 -0.039222 0
0.988581 -0.049807 0
0.982114 -0.060306 0
0.973152 -0.078849 0
0.962635 -0.087264 0
0.938833 -0.119146 0
0.919070 -0.137234 0
0.840995 -0.184032 0
0.804778 -0.198854 0
0.461015 -0.074773 0
0.344174 -0.003580 0
0.000000 0.000000 0
0.000000 0.000000 0
0.000000 0.000000 0
0.000000 0.000000 0
0.202206 0.227277 0
-0.152628 0.304617 0
-0.114863 0.240462 0
-0.195296 0.668305 0
0.225907 0.742377 0
0.272112 0.183193 0
0.405219 -0.417186 0
0.488910 -0.893645 0
0.413147 -1.207993 0
0.333039 -1.098906 0
0.545559 -0.558235 0
0.758369 -0.055910 0
0.886167 0.329419 0
0.936078 0.582858 0
1.007349 0.657045 0
1.076343 0.642969 0
0.947464 0.776605 0
0.700057 0.943745 0
0.553492 0.932742 0
0.547010 0.737203 0
0.660797 0.402713 0
0.711829 0.070938 0
0.654563 -0.190734 0
0.574716 -0.369632 0
0.544716 -0.467683 0
0.560749 -0.509418 0
0.567947 -0.527838 0
0.561495 -0.527108 0
0.573602 -0.480658 0
0.618497 -0.378215 0
0.676372 -0.243798 0
0.735412 -0.095552 0
0.793226 0.055742 0
0.859779 0.184249 0
0.937852 0.267802 0
1.011814 0.299837 0
1.069309 0.306365 0
1.072555 0.348079 0