# vtk DataFile Version 2.0
generated by CFD-lab course output (written by Tobias Neckel) 
ASCII

DATASET STRUCTURED_GRID
DIMENSIONS  101 21 1 
POINTS 2121 float

0.000000 0.000000 0
0.100000 0.000000 0
0.200000 0.000000 0
0.300000 0.000000 0
0.400000 0.000000 0
0.500000 0.000000 0
0.600000 0.000000 0
0.700000 0.000000 0
0.800000 0.000000 0
0.900000 0.000000 0
1.000000 0.000000 0
1.100000 0.000000 0
1.200000 0.000000 0
1.300000 0.000000 0
1.400000 0.000000 0
1.500000 0.000000 0
1.600000 0.000000 0
1.700000 0.000000 0
1.800000 0.000000 0
1.900000 0.000000 0
2.000000 0.000000 0
2.100000 0.000000 0
2.200000 0.000000 0
2.300000 0.000000 0
2.400000 0.000000 0
2.500000 0.000000 0
2.600000 0.000000 0
2.700000 0.000000 0
2.800000 0.000000 0
2.900000 0.000000 0
3.000000 0.000000 0
3.100000 0.000000 0
3.200000 0.000000 0
3.300000 0.000000 0
3.400000 0.000000 0
3.500000 0.000000 0
3.600000 0.000000 0
3.700000 0.000000 0
3.800000 0.000000 0
3.900000 0.000000 0
4.000000 0.000000 0
4.100000 0.000000 0
4.200000 0.000000 0
4.300000 0.000000 0
4.400000 0.000000 0
4.500000 0.000000 0
4.600000 0.000000 0
4.700000 0.000000 0
4.800000 0.000000 0
4.900000 0.000000 0
5.000000 0.000000 0
5.100000 0.000000 0
5.200000 0.000000 0
5.300000 0.000000 0
5.400000 0.000000 0
5.500000 0.000000 0
5.600000 0.000000 0
5.700000 0.000000 0
5.800000 0.000000 0
5.900000 0.000000 0
6.000000 0.000000 0
6.100000 0.000000 0
6.200000 0.000000 0
6.300000 0.000000 0
6.400000 0.000000 0
6.500000 0.000000 0
6.600000 0.000000 0
6.700000 0.000000 0
6.800000 0.000000 0
6.900000 0.000000 0
7.000000 0.000000 0
7.100000 0.000000 0
7.200000 0.000000 0
7.300000 0.000000 0
7.400000 0.000000 0
7.500000 0.000000 0
7.600000 0.000000 0
7.700000 0.000000 0
7.800000 0.000000 0
7.900000 0.000000 0
8.000000 0.000000 0
8.100000 0.000000 0
8.200000 0.000000 0
8.300000 0.000000 0
8.400000 0.000000 0
8.500000 0.000000 0
8.600000 0.000000 0
8.700000 0.000000 0
8.800000 0.000000 0
8.900000 0.000000 0
9.000000 0.000000 0
9.100000 0.000000 0
9.200000 0.000000 0
9.300000 0.000000 0
9.400000 0.000000 0
9.500000 0.000000 0
9.600000 0.000000 0
9.700000 0.000000 0
9.800000 0.000000 0
9.900000 0.000000 0
10.000000 0.000000 0
0.000000 0.100000 0
0.100000 0.100000 0
0.200000 0.100000 0
0.300000 0.100000 0
0.400000 0.100000 0
0.500000 0.100000 0
0.600000 0.100000 0
0.700000 0.100000 0
0.800000 0.100000 0
0.900000 0.100000 0
1.000000 0.100000 0
1.100000 0.100000 0
1.200000 0.100000 0
1.300000 0.100000 0
1.400000 0.100000 0
1.500000 0.100000 0
1.600000 0.100000 0
1.700000 0.100000 0
1.800000 0.100000 0
1.900000 0.100000 0
2.000000 0.100000 0
2.100000 0.100000 0
2.200000 0.100000 0
2.300000 0.100000 0
2.400000 0.100000 0
2.500000 0.100000 0
2.600000 0.100000 0
2.700000 0.100000 0
2.800000 0.100000 0
2.900000 0.100000 0
3.000000 0.100000 0
3.100000 0.100000 0
3.200000 0.100000 0
3.300000 0.100000 0
3.400000 0.100000 0
3.500000 0.100000 0
3.600000 0.100000 0
3.700000 0.100000 0
3.800000 0.100000 0
3.900000 0.100000 0
4.000000 0.100000 0
4.100000 0.100000 0
4.200000 0.100000 0
4.300000 0.100000 0
4.400000 0.100000 0
4.500000 0.100000 0
4.600000 0.100000 0
4.700000 0.100000 0
4.800000 0.100000 0
4.900000 0.100000 0
5.000000 0.100000 0
5.100000 0.100000 0
5.200000 0.100000 0
5.300000 0.100000 0
5.400000 0.100000 0
5.500000 0.100000 0
5.600000 0.100000 0
5.700000 0.100000 0
5.800000 0.100000 0
5.900000 0.100000 0
6.000000 0.100000 0
6.100000 0.100000 0
6.200000 0.100000 0
6.300000 0.100000 0
6.400000 0.100000 0
6.500000 0.100000 0
6.600000 0.100000 0
6.700000 0.100000 0
6.800000 0.100000 0
6.900000 0.100000 0
7.000000 0.100000 0
7.100000 0.100000 0
7.200000 0.100000 0
7.300000 0.100000 0
7.400000 0.100000 0
7.500000 0.100000 0
7.600000 0.100000 0
7.700000 0.100000 0
7.800000 0.100000 0
7.900000 0.100000 0
8.000000 0.100000 0
8.100000 0.100000 0
8.200000 0.100000 0
8.300000 0.100000 0
8.400000 0.100000 0
8.500000 0.100000 0
8.600000 0.100000 0
8.700000 0.100000 0
8.800000 0.100000 0
8.900000 0.100000 0
9.000000 0.100000 0
9.100000 0.100000 0
9.200000 0.100000 0
9.300000 0.100000 0
9.400000 0.100000 0
9.500000 0.100000 0
9.600000 0.100000 0
9.700000 0.100000 0
9.800000 0.100000 0
9.900000 0.100000 0
10.000000 0.100000 0
0.000000 0.200000 0
0.100000 0.200000 0
0.200000 0.200000 0
0.300000 0.200000 0
0.400000 0.200000 0
0.500000 0.200000 0
0.600000 0.200000 0
0.700000 0.200000 0
0.800000 0.200000 0
0.900000 0.200000 0
1.000000 0.200000 0
1.100000 0.200000 0
1.200000 0.200000 0
1.300000 0.200000 0
1.400000 0.200000 0
1.500000 0.200000 0
1.600000 0.200000 0
1.700000 0.200000 0
1.800000 0.200000 0
1.900000 0.200000 0
2.000000 0.200000 0
2.100000 0.200000 0
2.200000 0.200000 0
2.300000 0.200000 0
2.400000 0.200000 0
2.500000 0.200000 0
2.600000 0.200000 0
2.700000 0.200000 0
2.800000 0.200000 0
2.900000 0.200000 0
3.000000 0.200000 0
3.100000 0.200000 0
3.200000 0.200000 0
3.300000 0.200000 0
3.400000 0.200000 0
3.500000 0.200000 0
3.600000 0.200000 0
3.700000 0.200000 0
3.800000 0.200000 0
3.900000 0.200000 0
4.000000 0.200000 0
4.100000 0.200000 0
4.200000 0.200000 0
4.300000 0.200000 0
4.400000 0.200000 0
4.500000 0.200000 0
4.600000 0.200000 0
4.700000 0.200000 0
4.800000 0.200000 0
4.900000 0.200000 0
5.000000 0.200000 0
5.100000 0.200000 0
5.200000 0.200000 0
5.300000 0.200000 0
5.400000 0.200000 0
5.500000 0.200000 0
5.600000 0.200000 0
5.700000 0.200000 0
5.800000 0.200000 0
5.900000 0.200000 0
6.000000 0.200000 0
6.100000 0.200000 0
6.200000 0.200000 0
6.300000 0.200000 0
6.400000 0.200000 0
6.500000 0.200000 0
6.600000 0.200000 0
6.700000 0.200000 0
6.800000 0.200000 0
6.900000 0.200000 0
7.000000 0.200000 0
7.100000 0.200000 0
7.200000 0.200000 0
7.300000 0.200000 0
7.400000 0.200000 0
7.500000 0.200000 0
7.600000 0.200000 0
7.700000 0.200000 0
7.800000 0.200000 0
7.900000 0.200000 0
8.000000 0.200000 0
8.100000 0.200000 0
8.200000 0.200000 0
8.300000 0.200000 0
8.400000 0.200000 0
8.500000 0.200000 0
8.600000 0.200000 0
8.700000 0.200000 0
8.800000 0.200000 0
8.900000 0.200000 0
9.000000 0.200000 0
9.100000 0.200000 0
9.200000 0.200000 0
9.300000 0.200000 0
9.400000 0.200000 0
9.500000 0.200000 0
9.600000 0.200000 0
9.700000 0.200000 0
9.800000 0.200000 0
9.900000 0.200000 0
10.000000 0.200000 0
0.000000 0.300000 0
0.100000 0.300000 0
0.200000 0.300000 0
0.300000 0.300000 0
0.400000 0.300000 0
0.500000 0.300000 0
0.600000 0.300000 0
0.700000 0.300000 0
0.800000 0.300000 0
0.900000 0.300000 0
1.000000 0.300000 0
1.100000 0.300000 0
1.200000 0.300000 0
1.300000 0.300000 0
1.400000 0.300000 0
1.500000 0.300000 0
1.600000 0.300000 0
1.700000 0.300000 0
1.800000 0.300000 0
1.900000 0.300000 0
2.000000 0.300000 0
2.100000 0.300000 0
2.200000 0.300000 0
2.300000 0.300000 0
2.400000 0.300000 0
2.500000 0.300000 0
2.600000 0.300000 0
2.700000 0.300000 0
2.800000 0.300000 0
2.900000 0.300000 0
3.000000 0.300000 0
3.100000 0.300000 0
3.200000 0.300000 0
3.300000 0.300000 0
3.400000 0.300000 0
3.500000 0.300000 0
3.600000 0.300000 0
3.700000 0.300000 0
3.800000 0.300000 0
3.900000 0.300000 0
4.000000 0.300000 0
4.100000 0.300000 0
4.200000 0.300000 0
4.300000 0.300000 0
4.400000 0.300000 0
4.500000 0.300000 0
4.600000 0.300000 0
4.700000 0.300000 0
4.800000 0.300000 0
4.900000 0.300000 0
5.000000 0.300000 0
5.100000 0.300000 0
5.200000 0.300000 0
5.300000 0.300000 0
5.400000 0.300000 0
5.500000 0.300000 0
5.600000 0.300000 0
5.700000 0.300000 0
5.800000 0.300000 0
5.900000 0.300000 0
6.000000 0.300000 0
6.100000 0.300000 0
6.200000 0.300000 0
6.300000 0.300000 0
6.400000 0.300000 0
6.500000 0.300000 0
6.600000 0.300000 0
6.700000 0.300000 0
6.800000 0.300000 0
6.900000 0.300000 0
7.000000 0.300000 0
7.100000 0.300000 0
7.200000 0.300000 0
7.300000 0.300000 0
7.400000 0.300000 0
7.500000 0.300000 0
7.600000 0.300000 0
7.700000 0.300000 0
7.800000 0.300000 0
7.900000 0.300000 0
8.000000 0.300000 0
8.100000 0.300000 0
8.200000 0.300000 0
8.300000 0.300000 0
8.400000 0.300000 0
8.500000 0.300000 0
8.600000 0.300000 0
8.700000 0.300000 0
8.800000 0.300000 0
8.900000 0.300000 0
9.000000 0.300000 0
9.100000 0.300000 0
9.200000 0.300000 0
9.300000 0.300000 0
9.400000 0.300000 0
9.500000 0.300000 0
9.600000 0.300000 0
9.700000 0.300000 0
9.800000 0.300000 0
9.900000 0.300000 0
10.000000 0.300000 0
0.000000 0.400000 0
0.100000 0.400000 0
0.200000 0.400000 0
0.300000 0.400000 0
0.400000 0.400000 0
0.500000 0.400000 0
0.600000 0.400000 0
0.700000 0.400000 0
0.800000 0.400000 0
0.900000 0.400000 0
1.000000 0.400000 0
1.100000 0.400000 0
1.200000 0.400000 0
1.300000 0.400000 0
1.400000 0.400000 0
1.500000 0.400000 0
1.600000 0.400000 0
1.700000 0.400000 0
1.800000 0.400000 0
1.900000 0.400000 0
2.000000 0.400000 0
2.100000 0.400000 0
2.200000 0.400000 0
2.300000 0.400000 0
2.400000 0.400000 0
2.500000 0.400000 0
2.600000 0.400000 0
2.700000 0.400000 0
2.800000 0.400000 0
2.900000 0.400000 0
3.000000 0.400000 0
3.100000 0.400000 0
3.200000 0.400000 0
3.300000 0.400000 0
3.400000 0.400000 0
3.500000 0.400000 0
3.600000 0.400000 0
3.700000 0.400000 0
3.800000 0.400000 0
3.900000 0.400000 0
4.000000 0.400000 0
4.100000 0.400000 0
4.200000 0.400000 0
4.300000 0.400000 0
4.400000 0.400000 0
4.500000 0.400000 0
4.600000 0.400000 0
4.700000 0.400000 0
4.800000 0.400000 0
4.900000 0.400000 0
5.000000 0.400000 0
5.100000 0.400000 0
5.200000 0.400000 0
5.300000 0.400000 0
5.400000 0.400000 0
5.500000 0.400000 0
5.600000 0.400000 0
5.700000 0.400000 0
5.800000 0.400000 0
5.900000 0.400000 0
6.000000 0.400000 0
6.100000 0.400000 0
6.200000 0.400000 0
6.300000 0.400000 0
6.400000 0.400000 0
6.500000 0.400000 0
6.600000 0.400000 0
6.700000 0.400000 0
6.800000 0.400000 0
6.900000 0.400000 0
7.000000 0.400000 0
7.100000 0.400000 0
7.200000 0.400000 0
7.300000 0.400000 0
7.400000 0.400000 0
7.500000 0.400000 0
7.600000 0.400000 0
7.700000 0.400000 0
7.800000 0.400000 0
7.900000 0.400000 0
8.000000 0.400000 0
8.100000 0.400000 0
8.200000 0.400000 0
8.300000 0.400000 0
8.400000 0.400000 0
8.500000 0.400000 0
8.600000 0.400000 0
[...]
POINT_DATA 2121 

VECTORS velocity float
0.500000 0.000000 0
-0.000000 0.000000 0
-0.000006 0.000000 0
-0.000011 0.000000 0
-0.000012 0.000000 0
-0.000007 0.000000 0
0.000001 0.000000 0
0.000015 0.000000 0
0.000034 0.000000 0
0.000061 0.000000 0
0.000095 0.000000 0
0.000135 0.000000 0
0.000182 0.000000 0
0.000234 0.000000 0
0.000293 0.000000 0
0.000358 0.000000 0
0.000431 0.000000 0
0.000512 0.000000 0
0.000605 0.000000 0
0.000716 0.000000 0
0.000851 0.000000 0
0.001029 0.000000 0
0.001305 0.000000 0
0.001723 0.000000 0
0.002035 0.000000 0
0.002354 0.000000 0
0.002391 0.000000 0
0.002799 0.000000 0
0.003044 0.000000 0
0.003143 0.000000 0
0.003065 0.000000 0
0.002765 0.000000 0
0.002166 0.000000 0
0.001320 0.000000 0
-0.003031 0.000000 0
-0.008825 0.000000 0
-0.016903 0.000000 0
-0.025613 0.000000 0
-0.029368 0.000000 0
-0.023382 0.000000 0
-0.009096 0.000000 0
0.003994 0.000000 0
0.012610 0.000000 0
0.016676 0.000000 0
0.017396 0.000000 0
0.015993 0.000000 0
0.013716 0.000000 0
0.010222 0.000000 0
0.006144 0.000000 0
-0.010130 0.000000 0
-0.026033 0.000000 0
0.043514 0.000000 0
0.052883 0.000000 0
0.021904 0.000000 0
-0.004063 0.000000 0
-0.017465 0.000000 0
-0.020843 0.000000 0
-0.015610 0.000000 0
-0.011126 0.000000 0
-0.012867 0.000000 0
-0.013229 0.000000 0
-0.012732 0.000000 0
-0.011763 0.000000 0
-0.008777 0.000000 0
-0.004002 0.000000 0
0.001037 0.000000 0
0.005252 0.000000 0
0.011618 0.000000 0
0.025379 0.000000 0
0.038873 0.000000 0
0.010920 0.000000 0
-0.001939 0.000000 0
-0.005882 0.000000 0
-0.007317 0.000000 0
-0.007289 0.000000 0
-0.005574 0.000000 0
-0.006173 0.000000 0
-0.006148 0.000000 0
-0.006473 0.000000 0
-0.006316 0.000000 0
-0.005628 0.000000 0
-0.004553 0.000000 0
-0.003154 0.000000 0
-0.001561 0.000000 0
-0.000049 0.000000 0
0.001110 0.000000 0
0.001746 0.000000 0
0.001843 0.000000 0
0.001475 0.000000 0
0.000733 0.000000 0
-0.000291 0.000000 0
-0.001470 0.000000 0
-0.002625 0.000000 0
-0.003539 0.000000 0
-0.004029 0.000000 0
-0.004091 0.000000 0
-0.003883 0.000000 0
-0.003528 0.000000 0
-0.002968 0.000000 0
-0.002084 0.000000 0
-0.001573 0.000000 0
1.000000 0.000256 0
1.000223 0.000445 0
1.000795 0.000159 0
1.001854 -0.000437 0
1.003511 -0.001113 0
1.005821 -0.001782 0
1.008872 -0.002591 0
1.012780 -0.003551 0
1.017690 -0.004694 0
1.023798 -0.006068 0
1.031359 -0.007750 0
1.040713 -0.009835 0
1.052299 -0.012435 0
1.066675 -0.015675 0
1.084536 -0.019688 0
1.106720 -0.024585 0
1.134189 -0.030416 0
1.167954 -0.037082 0
1.208917 -0.044207 0
1.257541 -0.050957 0
1.313300 -0.055844 0
1.373631 -0.056834 0
1.434432 -0.050937 0
1.483294 -0.036486 0
1.513083 -0.016461 0
1.521117 0.004689 0
1.507032 0.024444 0
1.472526 0.041980 0
1.422520 0.057007 0
1.359483 0.069250 0
1.285788 0.078535 0
1.204047 0.084229 0
1.117282 0.083813 0
1.027135 0.089998 0
0.938135 0.076115 0
0.870661 0.024763 0
0.844124 -0.048863 0
0.905494 -0.146317 0
1.092209 -0.228328 0
1.376851 -0.226902 0
1.604277 -0.144816 0
1.722114 -0.046025 0
1.732852 0.033388 0
1.670865 0.082083 0
1.573818 0.103265 0
1.468583 0.103878 0
1.362211 0.090509 0
1.276345 0.069368 0
1.287066 0.046317 0
1.362293 -0.014004 0
1.269803 -0.016346 0
0.912983 0.238988 0
0.593837 0.378904 0
0.417219 0.180987 0
0.388843 -0.041990 0
0.480113 -0.173157 0
0.638258 -0.200410 0
0.825976 -0.157136 0
0.990303 -0.119287 0
1.109715 -0.113551 0
1.219165 -0.107682 0
1.316527 -0.096648 0
1.399622 -0.081297 0
1.464013 -0.054766 0
1.502154 -0.015384 0
1.507565 0.027071 0
1.465742 0.067396 0
1.372699 0.123802 0
1.228136 0.212085 0
1.049571 0.244637 0
0.904282 0.129075 0
0.845673 -0.002518 0
0.818109 -0.049353 0
0.808887 -0.064278 0
0.835260 -0.065014 0
0.901837 -0.053984 0
0.982253 -0.049942 0
1.047391 -0.054141 0
1.104725 -0.053886 0
1.161937 -0.051770 0
1.215070 -0.045654 0
1.260175 -0.036174 0
1.295263 -0.024442 0
1.318687 -0.011805 0
1.330131 -0.000185 0
1.331016 0.008569 0
1.323897 0.013408 0
1.312150 0.014237 0
1.299626 0.011580 0
1.289912 0.006196 0
1.285144 -0.000996 0
1.285261 -0.008849 0
1.288583 -0.016048 0
1.293368 -0.021288 0
1.299006 -0.023714 0
1.306275 -0.023436 0
1.316887 -0.021221 0
1.331802 -0.017654 0
1.349390 -0.011161 0
1.365026 -0.005465 0
1.372356 -0.003674 0
1.000000 -0.000207 0
1.000809 -0.000772 0
1.002196 -0.001617 0
1.004126 -0.002702 0
1.006542 -0.003952 0
1.009620 -0.005347 0
1.013409 -0.006944 0
1.017994 -0.008804 0
1.023495 -0.011004 0
1.030083 -0.013654 0
1.037991 -0.016901 0
1.047523 -0.020926 0
1.059080 -0.025948 0
1.073183 -0.032224 0
1.090503 -0.040032 0
1.111895 -0.049639 0
1.138416 -0.061220 0
1.171318 -0.074715 0
1.211997 -0.089575 0
1.261796 -0.104371 0
1.321473 -0.116078 0
1.389209 -0.121121 0
1.463178 -0.109651 0
1.522318 -0.078641 0
1.557826 -0.037813 0
1.567971 0.006061 0
1.554298 0.048599 0
1.518918 0.084521 0
1.467637 0.113052 0
1.402906 0.136740 0
1.327170 0.155443 0
1.242713 0.168512 0
1.150849 0.176917 0
1.049869 0.179153 0
0.980787 0.156480 0
0.877193 0.094017 0
0.752544 -0.034827 0
0.690800 -0.248080 0
0.825735 -0.471353 0
1.172159 -0.512063 0
1.464669 -0.345258 0
1.660237 -0.128571 0
1.733700 0.051253 0
1.705620 0.159038 0
1.619811 0.202287 0
1.511254 0.211611 0
1.385714 0.192243 0
1.309502 0.075150 0
1.416007 -0.085944 0
1.265524 0.017268 0
0.857656 0.449315 0
0.571097 0.675970 0
0.626469 0.495769 0
0.712791 0.205000 0
0.715414 -0.062889 0
0.653020 -0.249410 0
0.622904 -0.345857 0
0.696957 -0.352039 0
0.868234 -0.283733 0
1.023132 -0.228855 0
1.125198 -0.206807 0
1.208571 -0.180452 0
1.278020 -0.147480 0
1.336140 -0.102526 0
1.368964 -0.043546 0
1.341083 0.036417 0
1.250435 0.134871 0
1.149768 0.237611 0
1.066676 0.323132 0
1.046421 0.323858 0
1.016214 0.203901 0
0.890903 0.086176 0
0.751295 0.036788 0
0.653202 -0.017149 0
0.624078 -0.092949 0
0.684103 -0.146994 0
0.812976 -0.145556 0
0.940707 -0.122474 0
1.036949 -0.114550 0
1.100530 -0.110350 0
1.157255 -0.098244 0
1.205070 -0.080200 0
1.244614 -0.058520 0
1.274070 -0.034878 0
1.293347 -0.012339 0
1.304297 0.006223 0
1.308411 0.018853 0
1.307153 0.024258 0
1.302334 0.022223 0
1.295832 0.014466 0
1.288811 0.004634 0
1.281409 -0.003455 0
1.273537 -0.008125 0
1.266023 -0.010441 0
1.260583 -0.012925 0
1.259464 -0.017900 0
1.266007 -0.025547 0
1.282739 -0.032523 0
1.306944 -0.033244 0
1.333768 -0.022985 0
1.344373 -0.014282 0
1.000000 -0.000541 0
1.000597 -0.001737 0
1.001758 -0.003152 0
1.003454 -0.004776 0
1.005668 -0.006601 0
1.008463 -0.008643 0
1.011895 -0.010960 0
1.016031 -0.013631 0
1.020969 -0.016777 0
1.026845 -0.020558 0
1.033850 -0.025184 0
1.042240 -0.030919 0
1.052359 -0.038089 0
1.064670 -0.047093 0
1.079805 -0.058394 0
1.098628 -0.072493 0
1.122329 -0.089835 0
1.152477 -0.110659 0
1.191124 -0.134679 0
1.241288 -0.160429 0
1.305961 -0.183253 0
1.384694 -0.198535 0
1.486264 -0.184042 0
1.564815 -0.131131 0
1.606927 -0.062111 0
1.615869 0.008220 0
1.598738 0.073499 0
1.561612 0.128644 0
1.505409 0.173022 0
1.435779 0.209720 0
1.353909 0.238731 0
1.262059 0.260552 0
1.172770 0.276659 0
1.089638 0.260062 0
0.958192 0.248794 0
0.699259 0.253008 0
0.526793 0.137532 0
0.409682 -0.219506 0
0.437682 -0.709685 0
0.667338 -0.865835 0
1.096653 -0.632893 0
1.344836 -0.315054 0
1.518346 -0.011993 0
1.593905 0.195974 0
1.568855 0.297633 0
1.472668 0.337977 0
1.366067 0.292262 0
1.329467 0.039077 0
1.070804 0.090297 0
0.560505 0.544349 0
0.351362 0.678083 0
0.526442 0.470176 0
0.660843 0.237212 0
0.708088 0.092044 0
0.742598 0.017783 0
0.763361 -0.080645 0
0.750953 -0.244345 0
0.715915 -0.402463 0
0.755388 -0.445460 0
0.902287 -0.370513 0
1.029908 -0.293118 0
1.100075 -0.249467 0
1.152559 -0.208864 0
1.200364 -0.145708 0
1.248910 -0.020324 0
1.290123 0.145602 0
1.216845 0.258712 0
1.068876 0.307563 0
0.982692 0.315434 0
0.975060 0.295100 0
0.942136 0.284594 0
0.837647 0.262402 0
0.730949 0.188348 0
0.636074 0.062939 0
0.556168 -0.095916 0
0.544858 -0.242883 0
0.621998 -0.306547 0
0.751422 -0.278117 0
0.890147 -0.213712 0
0.997916 -0.172078 0
1.064108 -0.150197 0
1.111056 -0.123537 0
1.149576 -0.093445 0
1.175530 -0.060542 0
1.190379 -0.030417 0
1.201229 -0.006501 0
1.209771 0.010547 0
1.214374 0.020308 0
1.213468 0.022894 0
1.208875 0.019713 0
1.204850 0.013421 0
1.204521 0.006417 0
1.209055 -0.000669 0
1.219272 -0.008342 0
1.234017 -0.017163 0
1.248930 -0.028868 0
1.263992 -0.044504 0
1.284428 -0.058599 0
1.309553 -0.062197 0
1.330499 -0.042902 0
1.337187 -0.025117 0
1.000000 -0.000792 0
1.000415 -0.002516 0
1.001395 -0.004468 0
1.002860 -0.006605 0
1.004787 -0.008955 0
1.007216 -0.011568 0
1.010187 -0.014507 0
1.013746 -0.017872 0
1.017953 -0.021811 0
1.022905 -0.026529 0
1.028742 -0.032291 0
1.035657 -0.039430 0
1.043902 -0.048372 0
1.053838 -0.059664 0
1.066007 -0.073985 0
1.081188 -0.092158 0
1.100654 -0.115064 0
1.126193 -0.143506 0
1.159953 -0.178383 0
1.208410 -0.219204 0
1.276314 -0.259480 0
1.362699 -0.301420 0
1.533656 -0.289768 0
1.639276 -0.199301 0
1.683691 -0.088864 0
1.687980 0.014253 0
1.663215 0.102859 0
1.619447 0.177853 0
1.557788 0.238888 0
1.476543 0.288242 0
1.377627 0.329165 0
1.276485 0.349653 0
1.157530 0.349340 0
1.076347 0.393733 0
1.068393 0.546861 0
1.016359 0.525418 0
0.778003 0.254751 0
0.552662 -0.158968 0
0.471217 -0.729006 0
0.439220 -1.171033 0
0.673587 -1.022755 0
0.983005 -0.550263 0
1.175092 -0.197815 0
1.303232 0.108531 0
1.378868 0.323526 0
1.362514 0.414401 0
1.301930 0.335445 0
1.152651 0.370416 0
0.623602 0.683020 0
0.327908 0.736711 0
0.395810 0.483380 0
0.444354 0.366491 0
0.385402 0.314125 0
0.349379 0.123247 0
0.423800 -0.118160 0
0.594484 -0.257763 0
0.755785 -0.298409 0
0.818310 -0.356472 0
0.785497 -0.470103 0
0.799184 -0.503373 0
0.918601 -0.404591 0
1.014864 -0.303101 0
1.052619 -0.247768 0
1.072683 -0.198874 0
1.060543 -0.133302 0
1.011311 0.068484 0
0.935626 0.356120 0
0.901698 0.471767 0
0.899056 0.416950 0
0.830531 0.364414 0
0.796212 0.341316 0
0.836064 0.297364 0
0.889745 0.238360 0
0.908496 0.157631 0
0.888345 -0.001734 0
0.792023 -0.212824 0
0.670467 -0.352121 0
0.634356 -0.390626 0
0.698270 -0.361046 0
0.820181 -0.284313 0
0.929527 -0.211387 0
1.009408 -0.165672 0
1.056638 -0.122998 0
1.074668 -0.075685 0
1.073030 -0.038042 0
1.072551 -0.013175 0
1.078020 0.005703 0
1.086651 0.020555 0
1.092644 0.027715 0
1.097017 0.023078 0
1.106825 0.008982 0
1.124791 -0.007668 0
1.146692 -0.022883 0
1.170783 -0.035411 0
1.194576 -0.042590 0
1.203748 -0.047883 0
1.201102 -0.061053 0
1.208088 -0.078092 0
1.230091 -0.079323 0
1.234524 -0.050626 0
1.231872 -0.027679 0
1.000000 -0.000945 0
1.000101 -0.003117 0
1.001004 -0.005591 0
1.002261 -0.008163 0
1.003848 -0.010950 0
1.005848 -0.014037 0
1.008287 -0.017484 0
1.011176 -0.021392 0
1.014527 -0.025931 0
1.018385 -0.031342 0
1.022841 -0.037931 0
1.028005 -0.046073 0
1.033999 -0.056265 0
1.041008 -0.069194 0
1.049431 -0.085739 0
1.059702 -0.107135 0
1.073163 -0.134836 0
1.091811 -0.169954 0
1.114615 -0.216893 0
1.158201 -0.276786 0
1.217192 -0.337537 0
1.313378 -0.455873 0
1.625748 -0.460616 0
1.721752 -0.281163 0
1.735459 -0.110811 0
1.729175 0.028700 0
1.704871 0.142035 0
1.671411 0.234073 0
1.626176 0.315929 0
1.563156 0.389883 0
1.457832 0.438791 0
1.304282 0.480651 0
1.124527 0.476797 0
0.937467 0.349201 0
0.976035 0.308784 0
0.977409 0.543400 0
0.802486 0.601230 0
0.797945 0.087282 0
0.767497 -0.596242 0
0.613226 -1.068204 0
0.497395 -1.176676 0
0.717397 -0.816558 0
0.911260 -0.332219 0
1.039166 -0.007800 0
1.131258 0.238351 0
1.179890 0.414916 0
1.164202 0.502127 0
0.968603 0.717407 0
0.787047 0.915042 0
0.805437 0.772143 0
0.745269 0.561638 0
0.565731 0.480587 0
0.539186 0.332189 0
0.634166 0.053647 0
0.672506 -0.227319 0
0.638678 -0.412627 0
0.625460 -0.468168 0
0.700033 -0.432173 0
0.772764 -0.426333 0
0.767509 -0.503615 0
0.793899 -0.508796 0
0.880074 -0.383482 0
0.888364 -0.266680 0
0.790237 -0.153630 0
0.646414 0.041049 0
0.525325 0.270521 0
0.573440 0.368326 0
0.718833 0.344134 0
0.686752 0.386603 0
0.638880 0.397945 0
0.729676 0.279062 0
0.843333 0.168869 0
0.906011 0.115916 0
0.924077 0.064339 0
0.914340 0.020557 0
0.841323 -0.025006 0
0.721444 -0.148883 0
0.626589 -0.305922 0
0.590887 -0.399539 0
0.632513 -0.403338 0
0.729932 -0.339428 0
0.824711 -0.250651 0
0.896483 -0.158709 0
0.956748 -0.076939 0
0.994046 -0.028305 0
0.986948 -0.011496 0
0.954202 -0.003559 0
0.929990 0.005678 0
0.915205 0.012521 0
0.908514 0.005526 0
0.927230 -0.014359 0
0.972729 -0.033456 0
1.025730 -0.046669 0
1.072469 -0.056234 0
1.111286 -0.050136 0
1.125395 -0.035401 0
1.112733 -0.048851 0
1.111647 -0.087596 0
1.159718 -0.088641 0
1.164298 -0.044691 0
1.158028 -0.019246 0
1.000000 -0.000882 0
1.000041 -0.003506 0
1.000348 -0.006622 0
1.001565 -0.009443 0
1.002834 -0.012537 0
1.004349 -0.016001 0
1.006186 -0.019829 0
1.008366 -0.024106 0
1.010804 -0.029015 0
1.013469 -0.034838 0
1.016419 -0.041906 0
1.019698 -0.050583 0
1.023250 -0.061371 0
1.026933 -0.075091 0
1.031228 -0.092675 0
1.035482 -0.115886 0
1.041142 -0.147169 0
1.052208 -0.184954 0
1.053534 -0.244769 0
1.091574 -0.321777 0
1.112113 -0.414654 0
1.259020 -0.709972 0
1.629032 -0.698138 0
1.556965 -0.309009 0
1.463456 -0.096285 0
1.450982 0.044844 0
1.446384 0.160626 0
1.473763 0.256550 0
1.515999 0.347145 0
1.556555 0.456588 0
1.532768 0.588041 0
1.435597 0.682960 0
1.290263 0.716156 0
1.091136 0.542226 0
0.740423 0.506921 0
0.424036 0.698968 0
0.529068 0.434217 0
0.752455 -0.123979 0
0.767925 -0.544287 0
0.656758 -0.900929 0
0.511663 -1.126924 0
0.526475 -0.964127 0
0.702302 -0.519582 0
0.861538 -0.111466 0
0.945743 0.182803 0
1.008728 0.381458 0
1.030489 0.546733 0
0.980325 0.747573 0
1.036835 0.846188 0
1.072323 0.778490 0
0.955784 0.723088 0
0.853212 0.572576 0
0.891596 0.245693 0
0.996688 -0.010070 0
0.944784 -0.122670 0
0.728114 -0.210715 0
0.521994 -0.359762 0
0.462398 -0.503774 0
0.563691 -0.537577 0
0.660229 -0.524505 0
0.664475 -0.517154 0
0.678754 -0.397564 0
0.708409 -0.157929 0
0.667168 0.043078 0
0.631638 0.131611 0
0.716918 0.141459 0
0.872346 0.162614 0
0.812827 0.358456 0
0.676357 0.496904 0
0.676374 0.321491 0
0.667521 0.136864 0
0.621759 0.121029 0
0.571191 0.157616 0
0.523950 0.149303 0
0.497988 0.081019 0
0.537315 -0.019930 0
0.602694 -0.137388 0
0.618316 -0.260070 0
0.597631 -0.366973 0
0.583356 -0.423361 0
0.609691 -0.403588 0
0.654763 -0.332227 0
0.690617 -0.255039 0
0.733753 -0.173253 0
0.800831 -0.068247 0
0.858507 0.026664 0
0.874045 0.062654 0
0.835602 0.059547 0
0.769607 0.049186 0
0.725441 0.011046 0
0.733184 -0.055240 0
0.781785 -0.106175 0
0.829707 -0.122630 0
0.856636 -0.120975 0
0.909746 -0.095525 0
1.008022 -0.049337 0
1.058565 -0.047312 0
0.985673 -0.125086 0
0.872207 -0.131981 0
0.832620 -0.048944 0
0.824095 -0.012713 0
1.000000 -0.000975 0
1.000150 -0.003451 0
0.999840 -0.007109 0
1.000728 -0.010643 0
1.001685 -0.013728 0
1.002765 -0.017384 0
1.003952 -0.021496 0
1.005461 -0.026004 0
1.006993 -0.031028 0
1.008399 -0.036952 0
1.009798 -0.044155 0
1.011246 -0.052898 0
1.012542 -0.063495 0
1.012397 -0.077167 0
1.013544 -0.094284 0
1.013589 -0.117044 0
1.007437 -0.151557 0
1.007280 -0.182342 0
0.998832 -0.256255 0
1.002607 -0.335361 0
0.986453 -0.504980 0
1.100333 -0.972788 0
0.785907 -0.642973 0
-0.000690 0.000000 0
-0.002290 0.000000 0
0.586627 0.050600 0
0.647900 0.119256 0
0.513501 0.164460 0
0.731721 0.233139 0
1.218097 0.373116 0
1.329615 0.559751 0
1.314817 0.723157 0
1.288071 0.821260 0
1.159895 0.899042 0
0.766871 0.975885 0
0.618777 0.754757 0
0.701446 0.272812 0
0.663793 -0.151574 0
0.621615 -0.500544 0
0.592462 -0.811941 0
0.502043 -1.046392 0
0.441813 -1.007196 0
0.535942 -0.667280 0
0.702793 -0.251240 0
0.850211 0.091163 0
0.938937 0.330172 0
0.967501 0.530531 0
0.989038 0.711062 0
1.059489 0.823046 0
1.085054 0.853196 0
1.087524 0.780751 0
1.174593 0.544777 0
1.167312 0.188714 0
0.958643 0.000461 0
0.745271 0.041256 0
0.614116 0.010164 0
0.543819 -0.202450 0
0.489375 -0.473868 0
0.480526 -0.624161 0
0.543577 -0.604397 0
0.580673 -0.527318 0
0.568198 -0.427414 0
0.625403 -0.255093 0
0.768181 -0.076857 0
0.921048 -0.008699 0
0.968421 0.029814 0
0.855274 0.272419 0
0.690142 0.540125 0
0.742170 0.523056 0
0.788205 0.406783 0
0.643391 0.333677 0
0.442925 0.265199 0
0.311826 0.213725 0
0.290283 0.137542 0
0.341506 0.007191 0
0.433494 -0.129713 0
0.535405 -0.229885 0
0.612099 -0.300861 0
0.645709 -0.364581 0
0.628822 -0.415401 0
0.614306 -0.410838 0
0.644031 -0.331580 0
0.696843 -0.237702 0
0.726730 -0.187158 0
0.730806 -0.153064 0
0.741037 -0.084715 0
0.759652 0.019340 0
0.769747 0.110110 0
0.791880 0.122676 0
0.813988 0.041942 0
0.799706 -0.070710 0
0.790601 -0.129986 0
0.847628 -0.121527 0
0.878718 -0.136280 0
0.852161 -0.201529 0
0.835156 -0.184227 0
0.847869 -0.026510 0
0.808831 0.098754 0
0.692612 0.064404 0
0.658462 0.003413 0
0.648929 -0.001947 0
1.000000 -0.001020 0
0.999893 -0.003331 0
0.999973 -0.007194 0
0.999990 -0.011282 0
1.000482 -0.014569 0
1.001098 -0.018263 0
1.001435 -0.022520 0
1.002592 -0.027142 0
1.003377 -0.031947 0
1.003476 -0.037638 0
1.003469 -0.044747 0
1.002755 -0.053323 0
1.004340 -0.062517 0
0.998465 -0.076089 0
1.000099 -0.093862 0
0.989249 -0.109775 0
0.990911 -0.140856 0
0.960890 -0.176345 0
0.970546 -0.240092 0
0.888631 -0.309395 0
0.898476 -0.512377 0
0.629919 -0.625007 0
0.000000 0.000219 0
-0.678776 0.276106 0
-0.594775 0.000000 0
0.000000 0.000000 0
0.056344 0.239498 0
0.116588 0.172730 0
0.014876 -0.357449 0
0.675694 -0.141304 0
0.921011 0.491321 0
0.979533 0.724505 0
0.984331 0.871080 0
0.882197 1.063427 0
0.782419 1.048040 0
0.787378 0.764395 0
0.697202 0.389202 0
0.628230 -0.044147 0
0.598427 -0.472954 0
0.581434 -0.781356 0
0.523345 -0.976275 0
0.446346 -0.998024 0
0.475032 -0.780560 0
0.604682 -0.425733 0
0.755213 -0.053341 0
0.880233 0.264170 0
0.952423 0.496634 0
1.012810 0.655586 0
1.107780 0.750173 0
1.213302 0.750456 0
1.320624 0.633551 0
1.370066 0.492790 0
1.250509 0.461644 0
0.954239 0.411973 0
0.740449 0.221859 0
0.683027 -0.009261 0
0.681651 -0.235018 0
0.675194 -0.440479 0
0.631731 -0.591777 0
0.601578 -0.624650 0
0.618715 -0.541772 0
0.622624 -0.442292 0
0.605502 -0.357910 0
0.626872 -0.252565 0
0.683427 -0.068626 0
0.615186 0.207235 0
0.470975 0.440894 0
0.522921 0.471561 0
0.665144 0.398842 0
0.708355 0.420270 0
0.690126 0.482144 0
0.653037 0.452595 0
0.645768 0.310259 0
0.694898 0.119622 0
0.767742 -0.062193 0
0.783788 -0.213830 0
0.729523 -0.315995 0
0.725677 -0.370376 0
0.783232 -0.383698 0
0.793857 -0.391960 0
0.709266 -0.418800 0
0.622821 -0.414768 0
0.618014 -0.337742 0
0.652506 -0.207219 0
0.661420 -0.082558 0
0.654409 -0.002187 0
0.673377 0.033938 0
0.740655 0.027314 0
0.854120 0.004938 0
0.956339 0.003213 0
0.994567 -0.031859 0
0.971120 -0.154104 0
0.926382 -0.210755 0
0.925209 -0.125515 0
0.897368 -0.051970 0
0.821958 -0.045051 0
0.772396 -0.020994 0
0.781693 0.030164 0
0.842377 0.018381 0
0.894147 -0.005269 0
0.891018 0.004513 0
1.000000 -0.000856 0
0.999879 -0.003409 0
0.999955 -0.007201 0
0.999593 -0.011145 0
0.999591 -0.014830 0
1.000024 -0.018332 0
0.999362 -0.022984 0
0.999839 -0.027941 0
0.999597 -0.031907 0
1.000125 -0.037039 0
0.997814 -0.043430 0
0.996440 -0.053764 0
0.994097 -0.059200 0
0.992893 -0.072922 0
0.983886 -0.085064 0
0.976801 -0.107852 0
0.965691 -0.123195 0
0.945889 -0.161973 0
0.917219 -0.183992 0
0.853009 -0.263288 0
0.779852 -0.246265 0
0.465900 -0.173515 0
0.318040 -0.112259 0
0.000000 0.000000 0
0.000000 0.000000 0
0.000000 0.000000 0
0.000000 0.000000 0
0.231086 0.197517 0
0.162173 -0.325966 0
-0.052249 -0.533017 0
0.580711 0.255913 0
0.753807 0.659838 0
0.731678 0.918597 0
0.707937 1.100956 0
0.703690 1.070705 0
0.623715 0.839975 0
0.654213 0.431961 0
0.760366 -0.052798 0
0.778540 -0.453747 0
0.728562 -0.736858 0
0.663943 -0.911304 0
0.564564 -0.958882 0
0.522936 -0.825615 0
0.589590 -0.531420 0
0.709126 -0.184387 0
0.839623 0.132963 0
0.939851 0.397955 0
1.014755 0.555706 0
1.105892 0.622555 0
1.196753 0.640354 0
1.236507 0.623989 0
1.188579 0.614893 0
1.102655 0.604543 0
1.084169 0.510523 0
1.060880 0.312470 0
1.023790 0.068964 0
0.994258 -0.194615 0
0.934029 -0.423946 0
0.828945 -0.550543 0