# vtk DataFile Version 2.0
generated by CFD-lab course output (written by Tobias Neckel) 
ASCII

DATASET STRUCTURED_GRID
DIMENSIONS  101 21 1 
POINTS 2121 float

0.000000 0.000000 0
0.100000 0.000000 0
0.200000 0.000000 0
0.300000 0.000000 0
0.400000 0.000000 0
0.500000 0.000000 0
0.600000 0.000000 0
0.700000 0.000000 0
0.800000 0.000000 0
0.900000 0.000000 0
1.000000 0.000000 0
1.100000 0.000000 0
1.200000 0.000000 0
1.300000 0.000000 0
1.400000 0.000000 0
1.500000 0.000000 0
1.600000 0.000000 0
1.700000 0.000000 0
1.800000 0.000000 0
1.900000 0.000000 0
2.000000 0.000000 0
2.100000 0.000000 0
2.200000 0.000000 0
2.300000 0.000000 0
2.400000 0.000000 0
2.500000 0.000000 0
2.600000 0.000000 0
2.700000 0.000000 0
2.800000 0.000000 0
2.900000 0.000000 0
3.000000 0.000000 0
3.100000 0.000000 0
3.200000 0.000000 0
3.300000 0.000000 0
3.400000 0.000000 0
3.500000 0.000000 0
3.600000 0.000000 0
3.700000 0.000000 0
3.800000 0.000000 0
3.900000 0.000000 0
4.000000 0.000000 0
4.100000 0.000000 0
4.200000 0.000000 0
4.300000 0.000000 0
4.400000 0.000000 0
4.500000 0.000000 0
4.600000 0.000000 0
4.700000 0.000000 0
4.800000 0.000000 0
4.900000 0.000000 0
5.000000 0.000000 0
5.100000 0.000000 0
5.200000 0.000000 0
5.300000 0.000000 0
5.400000 0.000000 0
5.500000 0.000000 0
5.600000 0.000000 0
5.700000 0.000000 0
5.800000 0.000000 0
5.900000 0.000000 0
6.000000 0.000000 0
6.100000 0.000000 0
6.200000 0.000000 0
6.300000 0.000000 0
6.400000 0.000000 0
6.500000 0.000000 0
6.600000 0.000000 0
6.700000 0.000000 0
6.800000 0.000000 0
6.900000 0.000000 0
7.000000 0.000000 0
7.100000 0.000000 0
7.200000 0.000000 0
7.300000 0.000000 0
7.400000 0.000000 0
7.500000 0.000000 0
7.600000 0.000000 0
7.700000 0.000000 0
7.800000 0.000000 0
7.900000 0.000000 0
8.000000 0.000000 0
8.100000 0.000000 0
8.200000 0.000000 0
8.300000 0.000000 0
8.400000 0.000000 0
8.500000 0.000000 0
8.600000 0.000000 0
8.700000 0.000000 0
8.800000 0.000000 0
8.900000 0.000000 0
9.000000 0.000000 0
9.100000 0.000000 0
9.200000 0.000000 0
9.300000 0.000000 0
9.400000 0.000000 0
9.500000 0.000000 0
9.600000 0.000000 0
9.700000 0.000000 0
9.800000 0.000000 0
9.900000 0.000000 0
10.000000 0.000000 0
0.000000 0.100000 0
0.100000 0.100000 0
0.200000 0.100000 0
0.300000 0.100000 0
0.400000 0.100000 0
0.500000 0.100000 0
0.600000 0.100000 0
0.700000 0.100000 0
0.800000 0.100000 0
0.900000 0.100000 0
1.000000 0.100000 0
1.100000 0.100000 0
1.200000 0.100000 0
1.300000 0.100000 0
1.400000 0.100000 0
1.500000 0.100000 0
1.600000 0.100000 0
1.700000 0.100000 0
1.800000 0.100000 0
1.900000 0.100000 0
2.000000 0.100000 0
2.100000 0.100000 0
2.200000 0.100000 0
2.300000 0.100000 0
2.400000 0.100000 0
2.500000 0.100000 0
2.600000 0.100000 0
2.700000 0.100000 0
2.800000 0.100000 0
2.900000 0.100000 0
3.000000 0.100000 0
3.100000 0.100000 0
3.200000 0.100000 0
3.300000 0.100000 0
3.400000 0.100000 0
3.500000 0.100000 0
3.600000 0.100000 0
3.700000 0.100000 0
3.800000 0.100000 0
3.900000 0.100000 0
4.000000 0.100000 0
4.100000 0.100000 0
4.200000 0.100000 0
4.300000 0.100000 0
4.400000 0.100000 0
4.500000 0.100000 0
4.600000 0.100000 0
4.700000 0.100000 0
4.800000 0.100000 0
4.900000 0.100000 0
5.000000 0.100000 0
5.100000 0.100000 0
5.200000 0.100000 0
5.300000 0.100000 0
5.400000 0.100000 0
5.500000 0.100000 0
5.600000 0.100000 0
5.700000 0.100000 0
5.800000 0.100000 0
5.900000 0.100000 0
6.000000 0.100000 0
6.100000 0.100000 0
6.200000 0.100000 0
6.300000 0.100000 0
6.400000 0.100000 0
6.500000 0.100000 0
6.600000 0.100000 0
6.700000 0.100000 0
6.800000 0.100000 0
6.900000 0.100000 0
7.000000 0.100000 0
7.100000 0.100000 0
7.200000 0.100000 0
7.300000 0.100000 0
7.400000 0.100000 0
7.500000 0.100000 0
7.600000 0.100000 0
7.700000 0.100000 0
7.800000 0.100000 0
7.900000 0.100000 0
8.000000 0.100000 0
8.100000 0.100000 0
8.200000 0.100000 0
8.300000 0.100000 0
8.400000 0.100000 0
8.500000 0.100000 0
8.600000 0.100000 0
8.700000 0.100000 0
8.800000 0.100000 0
8.900000 0.100000 0
9.000000 0.100000 0
9.100000 0.100000 0
9.200000 0.100000 0
9.300000 0.100000 0
9.400000 0.100000 0
9.500000 0.100000 0
9.600000 0.100000 0
9.700000 0.100000 0
9.800000 0.100000 0
9.900000 0.100000 0
10.000000 0.100000 0
0.000000 0.200000 0
0.100000 0.200000 0
0.200000 0.200000 0
0.300000 0.200000 0
0.400000 0.200000 0
0.500000 0.200000 0
0.600000 0.200000 0
0.700000 0.200000 0
0.800000 0.200000 0
0.900000 0.200000 0
1.000000 0.200000 0
1.100000 0.200000 0
1.200000 0.200000 0
1.300000 0.200000 0
1.400000 0.200000 0
1.500000 0.200000 0
1.600000 0.200000 0
1.700000 0.200000 0
1.800000 0.200000 0
1.900000 0.200000 0
2.000000 0.200000 0
2.100000 0.200000 0
2.200000 0.200000 0
2.300000 0.200000 0
2.400000 0.200000 0
2.500000 0.200000 0
2.600000 0.200000 0
2.700000 0.200000 0
2.800000 0.200000 0
2.900000 0.200000 0
3.000000 0.200000 0
3.100000 0.200000 0
3.200000 0.200000 0
3.300000 0.200000 0
3.400000 0.200000 0
3.500000 0.200000 0
3.600000 0.200000 0
3.700000 0.200000 0
3.800000 0.200000 0
3.900000 0.200000 0
4.000000 0.200000 0
4.100000 0.200000 0
4.200000 0.200000 0
4.300000 0.200000 0
4.400000 0.200000 0
4.500000 0.200000 0
4.600000 0.200000 0
4.700000 0.200000 0
4.800000 0.200000 0
4.900000 0.200000 0
5.000000 0.200000 0
5.100000 0.200000 0
5.200000 0.200000 0
5.300000 0.200000 0
5.400000 0.200000 0
5.500000 0.200000 0
5.600000 0.200000 0
5.700000 0.200000 0
5.800000 0.200000 0
5.900000 0.200000 0
6.000000 0.200000 0
6.100000 0.200000 0
6.200000 0.200000 0
6.300000 0.200000 0
6.400000 0.200000 0
6.500000 0.200000 0
6.600000 0.200000 0
6.700000 0.200000 0
6.800000 0.200000 0
6.900000 0.200000 0
7.000000 0.200000 0
7.100000 0.200000 0
7.200000 0.200000 0
7.300000 0.200000 0
7.400000 0.200000 0
7.500000 0.200000 0
7.600000 0.200000 0
7.700000 0.200000 0
7.800000 0.200000 0
7.900000 0.200000 0
8.000000 0.200000 0
8.100000 0.200000 0
8.200000 0.200000 0
8.300000 0.200000 0
8.400000 0.200000 0
8.500000 0.200000 0
8.600000 0.200000 0
8.700000 0.200000 0
8.800000 0.200000 0
8.900000 0.200000 0
9.000000 0.200000 0
9.100000 0.200000 0
9.200000 0.200000 0
9.300000 0.200000 0
9.400000 0.200000 0
9.500000 0.200000 0
9.600000 0.200000 0
9.700000 0.200000 0
9.800000 0.200000 0
9.900000 0.200000 0
10.000000 0.200000 0
0.000000 0.300000 0
0.100000 0.300000 0
0.200000 0.300000 0
0.300000 0.300000 0
0.400000 0.300000 0
0.500000 0.300000 0
0.600000 0.300000 0
0.700000 0.300000 0
0.800000 0.300000 0
0.900000 0.300000 0
1.000000 0.300000 0
1.100000 0.300000 0
1.200000 0.300000 0
1.300000 0.300000 0
1.400000 0.300000 0
1.500000 0.300000 0
1.600000 0.300000 0
1.700000 0.300000 0
1.800000 0.300000 0
1.900000 0.300000 0
2.000000 0.300000 0
2.100000 0.300000 0
2.200000 0.300000 0
2.300000 0.300000 0
2.400000 0.300000 0
2.500000 0.300000 0
2.600000 0.300000 0
2.700000 0.300000 0
2.800000 0.300000 0
2.900000 0.300000 0
3.000000 0.300000 0
3.100000 0.300000 0
3.200000 0.300000 0
3.300000 0.300000 0
3.400000 0.300000 0
3.500000 0.300000 0
3.600000 0.300000 0
3.700000 0.300000 0
3.800000 0.300000 0
3.900000 0.300000 0
4.000000 0.300000 0
4.100000 0.300000 0
4.200000 0.300000 0
4.300000 0.300000 0
4.400000 0.300000 0
4.500000 0.300000 0
4.600000 0.300000 0
4.700000 0.300000 0
4.800000 0.300000 0
4.900000 0.300000 0
5.000000 0.300000 0
5.100000 0.300000 0
5.200000 0.300000 0
5.300000 0.300000 0
5.400000 0.300000 0
5.500000 0.300000 0
5.600000 0.300000 0
5.700000 0.300000 0
5.800000 0.300000 0
5.900000 0.300000 0
6.000000 0.300000 0
6.100000 0.300000 0
6.200000 0.300000 0
6.300000 0.300000 0
6.400000 0.300000 0
6.500000 0.300000 0
6.600000 0.300000 0
6.700000 0.300000 0
6.800000 0.300000 0
6.900000 0.300000 0
7.000000 0.300000 0
7.100000 0.300000 0
7.200000 0.300000 0
7.300000 0.300000 0
7.400000 0.300000 0
7.500000 0.300000 0
7.600000 0.300000 0
7.700000 0.300000 0
7.800000 0.300000 0
7.900000 0.300000 0
8.000000 0.300000 0
8.100000 0.300000 0
8.200000 0.300000 0
8.300000 0.300000 0
8.400000 0.300000 0
8.500000 0.300000 0
8.600000 0.300000 0
8.700000 0.300000 0
8.800000 0.300000 0
8.900000 0.300000 0
9.000000 0.300000 0
9.100000 0.300000 0
9.200000 0.300000 0
9.300000 0.300000 0
9.400000 0.300000 0
9.500000 0.300000 0
9.600000 0.300000 0
9.700000 0.300000 0
9.800000 0.300000 0
9.900000 0.300000 0
10.000000 0.300000 0
0.000000 0.400000 0
0.100000 0.400000 0
0.200000 0.400000 0
0.300000 0.400000 0
0.400000 0.400000 0
0.500000 0.400000 0
0.600000 0.400000 0
0.700000 0.400000 0
0.800000 0.400000 0
0.900000 0.400000 0
1.000000 0.400000 0
1.100000 0.400000 0
1.200000 0.400000 0
1.300000 0.400000 0
1.400000 0.400000 0
1.500000 0.400000 0
1.600000 0.400000 0
1.700000 0.400000 0
1.800000 0.400000 0
1.900000 0.400000 0
2.000000 0.400000 0
2.100000 0.400000 0
2.200000 0.400000 0
2.300000 0.400000 0
2.400000 0.400000 0
2.500000 0.400000 0
2.600000 0.400000 0
2.700000 0.400000 0
2.800000 0.400000 0
2.900000 0.400000 0
3.000000 0.400000 0
3.100000 0.400000 0
3.200000 0.400000 0
3.300000 0.400000 0
3.400000 0.400000 0
3.500000 0.400000 0
3.600000 0.400000 0
3.700000 0.400000 0
3.800000 0.400000 0
3.900000 0.400000 0
4.000000 0.400000 0
4.100000 0.400000 0
4.200000 0.400000 0
4.300000 0.400000 0
4.400000 0.400000 0
4.500000 0.400000 0
4.600000 0.400000 0
4.700000 0.400000 0
4.800000 0.400000 0
4.900000 0.400000 0
5.000000 0.400000 0
5.100000 0.400000 0
5.200000 0.400000 0
5.300000 0.400000 0
5.400000 0.400000 0
5.500000 0.400000 0
5.600000 0.400000 0
5.700000 0.400000 0
5.800000 0.400000 0
5.900000 0.400000 0
6.000000 0.400000 0
6.100000 0.400000 0
6.200000 0.400000 0
6.300000 0.400000 0
6.400000 0.400000 0
6.500000 0.400000 0
6.600000 0.400000 0
6.700000 0.400000 0
6.800000 0.400000 0
6.900000 0.400000 0
7.000000 0.400000 0
7.100000 0.400000 0
7.200000 0.400000 0
7.300000 0.400000 0
7.400000 0.400000 0
7.500000 0.400000 0
7.600000 0.400000 0
7.700000 0.400000 0
7.800000 0.400000 0
7.900000 0.400000 0
8.000000 0.400000 0
8.100000 0.400000 0
8.200000 0.400000 0
8.300000 0.400000 0
8.400000 0.400000 0
8.500000 0.400000 0
8.600000 0.400000 0
[...]
POINT_DATA 2121 

VECTORS velocity float
0.500000 0.000000 0
0.000001 0.000000 0
-0.000002 0.000000 0
-0.000015 0.000000 0
-0.000018 0.000000 0
-0.000036 0.000000 0
-0.000068 0.000000 0
-0.000129 0.000000 0
-0.000138 0.000000 0
-0.000162 0.000000 0
-0.000206 0.000000 0
-0.000256 0.000000 0
-0.000312 0.000000 0
-0.000377 0.000000 0
-0.000448 0.000000 0
-0.000528 0.000000 0
-0.000614 0.000000 0
-0.000707 0.000000 0
-0.000804 0.000000 0
-0.000898 0.000000 0
-0.000978 0.000000 0
-0.001035 0.000000 0
-0.001082 0.000000 0
-0.001126 0.000000 0
-0.001133 0.000000 0
-0.001075 0.000000 0
-0.000919 0.000000 0
-0.000603 0.000000 0
-0.000038 0.000000 0
0.000765 0.000000 0
0.001753 0.000000 0
0.002883 0.000000 0
0.004007 0.000000 0
0.004983 0.000000 0
0.005712 0.000000 0
0.005815 0.000000 0
0.005634 0.000000 0
0.009757 0.000000 0
0.006420 0.000000 0
0.005602 0.000000 0
-0.004369 0.000000 0
-0.010400 0.000000 0
-0.014823 0.000000 0
-0.016235 0.000000 0
-0.021967 0.000000 0
-0.023073 0.000000 0
-0.019760 0.000000 0
-0.011925 0.000000 0
-0.001591 0.000000 0
0.008203 0.000000 0
0.014711 0.000000 0
0.017266 0.000000 0
0.018061 0.000000 0
0.023695 0.000000 0
0.023628 0.000000 0
0.004041 0.000000 0
0.005635 0.000000 0
-0.000921 0.000000 0
-0.008341 0.000000 0
-0.010004 0.000000 0
-0.010337 0.000000 0
-0.009068 0.000000 0
-0.009996 0.000000 0
-0.013283 0.000000 0
-0.012475 0.000000 0
-0.011223 0.000000 0
-0.009778 0.000000 0
-0.007410 0.000000 0
-0.003500 0.000000 0
0.001809 0.000000 0
0.007764 0.000000 0
0.012641 0.000000 0
0.014169 0.000000 0
0.011880 0.000000 0
0.007403 0.000000 0
0.003186 0.000000 0
0.000085 0.000000 0
-0.000895 0.000000 0
-0.000244 0.000000 0
-0.001437 0.000000 0
-0.003109 0.000000 0
-0.004318 0.000000 0
-0.005034 0.000000 0
-0.005305 0.000000 0
-0.004104 0.000000 0
-0.001624 0.000000 0
0.001500 0.000000 0
0.004641 0.000000 0
0.007178 0.000000 0
0.008473 0.000000 0
0.007193 0.000000 0
0.003768 0.000000 0
0.014114 0.000000 0
0.012380 0.000000 0
0.003791 0.000000 0
0.000555 0.000000 0
0.001343 0.000000 0
0.001979 0.000000 0
-0.000860 0.000000 0
-0.004566 0.000000 0
-0.004916 0.000000 0
1.000000 0.000352 0
0.999922 0.000859 0
0.999865 0.000957 0
0.999965 0.000781 0
1.000333 0.000501 0
1.001085 0.000074 0
1.002371 -0.000696 0
1.004383 -0.001808 0
1.007281 -0.002783 0
1.011171 -0.003770 0
1.016309 -0.005207 0
1.023017 -0.007048 0
1.031691 -0.009362 0
1.042830 -0.012258 0
1.057059 -0.015863 0
1.075150 -0.020307 0
1.098025 -0.025684 0
1.126718 -0.031980 0
1.162242 -0.038953 0
1.205308 -0.045983 0
1.255875 -0.051903 0
1.312279 -0.055096 0
1.370866 -0.053851 0
1.425719 -0.047560 0
1.470002 -0.036991 0
1.501513 -0.024445 0
1.519916 -0.012239 0
1.526255 -0.001158 0
1.522798 0.008992 0
1.511352 0.018636 0
1.490874 0.028840 0
1.459764 0.040807 0
1.415625 0.053944 0
1.357785 0.066742 0
1.287545 0.076775 0
1.208359 0.080513 0
1.125601 0.091475 0
1.037419 0.115130 0
0.932473 0.115313 0
0.785702 0.086102 0
0.670151 0.016235 0
0.675745 -0.065919 0
0.728985 -0.113600 0
0.877444 -0.141727 0
1.053492 -0.165343 0
1.227862 -0.179225 0
1.401668 -0.159132 0
1.547701 -0.104042 0
1.635432 -0.028357 0
1.651321 0.047448 0
1.596848 0.104438 0
1.491765 0.134353 0
1.358282 0.154541 0
1.211282 0.206247 0
1.063433 0.192091 0
0.895620 0.085574 0
0.702988 0.027570 0
0.621020 -0.012554 0
0.646327 -0.064805 0
0.693597 -0.084892 0
0.754580 -0.085620 0
0.856768 -0.083342 0
0.987739 -0.090223 0
1.105724 -0.101806 0
1.209989 -0.101487 0
1.303545 -0.089972 0
1.380882 -0.074110 0
1.440000 -0.052173 0
1.477401 -0.021597 0
1.487305 0.017420 0
1.464400 0.060137 0
1.408788 0.094725 0
1.332290 0.106384 0
1.256639 0.090350 0
1.202544 0.058872 0
1.170956 0.028990 0
1.154225 0.006916 0
1.163710 -0.002102 0
1.169408 -0.002284 0
1.162226 -0.011845 0
1.173380 -0.028928 0
1.194766 -0.041950 0
1.221159 -0.050259 0
1.255325 -0.052720 0
1.294799 -0.044258 0
1.324354 -0.023279 0
1.332487 0.005015 0
1.317736 0.034424 0
1.279727 0.060172 0
1.223710 0.075225 0
1.157515 0.071107 0
1.077574 0.070936 0
0.976655 0.123071 0
0.888483 0.129048 0
0.820833 0.052580 0
0.762737 0.011188 0
0.714733 0.014071 0
0.681011 0.017481 0
0.659358 -0.010019 0
0.698895 -0.021857 0
0.707761 -0.009473 0
1.000000 0.000082 0
1.000454 0.000140 0
1.001238 -0.000042 0
1.002254 -0.000468 0
1.003570 -0.001120 0
1.005299 -0.002038 0
1.007521 -0.003299 0
1.010216 -0.004912 0
1.013509 -0.006790 0
1.017892 -0.009031 0
1.023450 -0.011849 0
1.030422 -0.015385 0
1.039152 -0.019817 0
1.050089 -0.025372 0
1.063817 -0.032324 0
1.081096 -0.040971 0
1.102907 -0.051574 0
1.130487 -0.064222 0
1.165259 -0.078596 0
1.208662 -0.093642 0
1.261800 -0.106980 0
1.323556 -0.115000 0
1.391470 -0.113451 0
1.453156 -0.099148 0
1.500225 -0.075806 0
1.532726 -0.049927 0
1.550536 -0.024756 0
1.554716 -0.002895 0
1.549613 0.014891 0
1.540880 0.031912 0
1.527937 0.051577 0
1.503846 0.075238 0
1.464983 0.101968 0
1.409802 0.128069 0
1.339488 0.149414 0
1.257052 0.161932 0
1.158431 0.170928 0
1.060444 0.193115 0
1.044942 0.251703 0
1.062160 0.262306 0
0.896656 0.109941 0
0.598048 -0.058851 0
0.487767 -0.201718 0
0.627419 -0.324526 0
0.899272 -0.350437 0
1.101555 -0.348196 0
1.259370 -0.319859 0
1.392579 -0.233784 0
1.501079 -0.103638 0
1.569063 0.038566 0
1.577700 0.159537 0
1.523179 0.238549 0
1.422510 0.280467 0
1.312592 0.294834 0
1.231109 0.315649 0
1.076599 0.360433 0
0.912156 0.274588 0
0.844863 0.056650 0
0.749590 -0.072586 0
0.653624 -0.108261 0
0.620831 -0.163177 0
0.663708 -0.233164 0
0.788266 -0.248962 0
0.945932 -0.222255 0
1.071020 -0.197824 0
1.152018 -0.170896 0
1.214050 -0.136458 0
1.258404 -0.096520 0
1.286719 -0.047306 0
1.299141 0.012999 0
1.296126 0.078517 0
1.270998 0.132111 0
1.227668 0.152149 0
1.181170 0.129747 0
1.161885 0.085684 0
1.160724 0.048320 0
1.135711 0.007248 0
1.061738 -0.015180 0
0.987932 0.001488 0
0.966551 -0.003968 0
1.012376 -0.032536 0
1.058993 -0.047775 0
1.092554 -0.060553 0
1.125291 -0.073634 0
1.168779 -0.069022 0
1.210302 -0.037680 0
1.230184 0.006625 0
1.236329 0.052768 0
1.226407 0.094036 0
1.203528 0.122222 0
1.152915 0.146146 0
1.058991 0.180870 0
0.946423 0.189102 0
0.882371 0.155833 0
0.834224 0.125758 0
0.805588 0.106111 0
0.814877 0.081739 0
0.851549 0.055388 0
0.891406 -0.017873 0
0.834240 -0.048392 0
0.816245 -0.018958 0
1.000000 -0.000100 0
1.000312 -0.000377 0
1.000900 -0.000843 0
1.001739 -0.001551 0
1.002862 -0.002543 0
1.004339 -0.003877 0
1.006235 -0.005613 0
1.008613 -0.007796 0
1.011603 -0.010459 0
1.015424 -0.013712 0
1.020232 -0.017737 0
1.026229 -0.022751 0
1.033699 -0.029030 0
1.043022 -0.036923 0
1.054718 -0.046870 0
1.069501 -0.059398 0
1.088394 -0.075077 0
1.112920 -0.094334 0
1.145064 -0.117132 0
1.187560 -0.142526 0
1.243707 -0.166799 0
1.313867 -0.184769 0
1.404537 -0.183455 0
1.476171 -0.156321 0
1.525492 -0.116566 0
1.557997 -0.074760 0
1.574218 -0.034233 0
1.572432 -0.000240 0
1.559256 0.022824 0
1.549488 0.040310 0
1.547796 0.065871 0
1.537420 0.103757 0
1.501972 0.147985 0
1.445663 0.192234 0
1.375518 0.229521 0
1.293347 0.261565 0
1.198400 0.288078 0
1.113149 0.228613 0
1.053392 0.113591 0
0.937319 0.234381 0
0.760975 0.480341 0
0.554633 0.342963 0
0.478425 -0.142979 0
0.481840 -0.553239 0
0.706006 -0.639486 0
0.973070 -0.539330 0
1.121430 -0.450165 0
1.221648 -0.345759 0
1.308955 -0.204847 0
1.387229 -0.029180 0
1.438943 0.150315 0
1.440909 0.289537 0
1.392738 0.365122 0
1.311896 0.397643 0
1.218609 0.428079 0
1.180246 0.404523 0
1.232840 0.259303 0
1.150468 0.150009 0
0.989599 0.126431 0
0.920973 0.043864 0
0.905632 -0.095707 0
0.874318 -0.250779 0
0.799670 -0.372449 0
0.824770 -0.384561 0
0.926167 -0.307574 0
1.017507 -0.233003 0
1.069894 -0.180496 0
1.097080 -0.124843 0
1.112313 -0.062334 0
1.111378 0.008013 0
1.110294 0.088280 0
1.109283 0.163182 0
1.057085 0.196212 0
0.980281 0.156134 0
0.955233 0.079320 0
0.977783 0.055166 0
0.996792 0.105903 0
0.967296 0.145677 0
0.939436 0.092904 0
0.911157 -0.036286 0
0.837281 -0.121368 0
0.784132 -0.122126 0
0.766857 -0.116555 0
0.790211 -0.128943 0
0.851141 -0.129266 0
0.935745 -0.084680 0
1.014350 -0.021009 0
1.062830 0.038204 0
1.087015 0.092976 0
1.108930 0.148722 0
1.125824 0.215648 0
1.113102 0.277432 0
1.068408 0.299695 0
0.989531 0.241251 0
0.905777 0.129368 0
0.865583 0.030540 0
0.889486 -0.031886 0
0.937552 -0.059044 0
0.959430 0.007295 0
0.856857 0.053308 0
0.833216 0.028880 0
1.000000 -0.000228 0
1.000218 -0.000758 0
1.000653 -0.001468 0
1.001300 -0.002430 0
1.002189 -0.003719 0
1.003370 -0.005409 0
1.004905 -0.007574 0
1.006869 -0.010280 0
1.009362 -0.013601 0
1.012490 -0.017659 0
1.016370 -0.022654 0
1.021141 -0.028852 0
1.027004 -0.036610 0
1.034245 -0.046392 0
1.043261 -0.058804 0
1.054619 -0.074648 0
1.069191 -0.094994 0
1.088840 -0.120894 0
1.115758 -0.153238 0
1.154798 -0.192286 0
1.211429 -0.233289 0
1.291453 -0.275833 0
1.435218 -0.275758 0
1.520550 -0.220107 0
1.563553 -0.157636 0
1.591976 -0.098657 0
1.607906 -0.039194 0
1.597133 0.012064 0
1.563630 0.037831 0
1.546338 0.043369 0
1.566914 0.063642 0
1.590906 0.121059 0
1.566630 0.193723 0
1.492168 0.254520 0
1.392286 0.301726 0
1.293537 0.339046 0
1.215971 0.351122 0
1.143627 0.338118 0
0.948390 0.427527 0
0.678264 0.554717 0
0.673530 0.492620 0
0.891729 0.223692 0
1.036151 -0.128932 0
0.940372 -0.552114 0
0.764857 -0.841674 0
0.863960 -0.763627 0
1.023501 -0.568444 0
1.104220 -0.421316 0
1.160654 -0.269227 0
1.211083 -0.091430 0
1.267177 0.105852 0
1.306913 0.284749 0
1.304872 0.409475 0
1.254238 0.468958 0
1.190359 0.447295 0
1.201181 0.346198 0
1.139604 0.304363 0
0.991567 0.299888 0
0.960911 0.156906 0
1.024054 -0.024296 0
1.080291 -0.116524 0
1.086769 -0.127204 0
1.012373 -0.199415 0
0.890671 -0.348753 0
0.831937 -0.390563 0
0.867952 -0.314624 0
0.917393 -0.216031 0
0.936422 -0.138939 0
0.936458 -0.061605 0
0.943458 0.015018 0
0.959329 0.080613 0
0.961574 0.185320 0
0.926983 0.281151 0
0.890858 0.231599 0
0.865873 0.088183 0
0.846363 0.006762 0
0.846572 0.017736 0
0.875521 0.042178 0
0.896589 0.057629 0
0.855765 0.098188 0
0.723392 0.094490 0
0.595004 0.022651 0
0.514330 -0.066630 0
0.498648 -0.157915 0
0.551540 -0.214553 0
0.646226 -0.200886 0
0.751388 -0.120456 0
0.840812 -0.019894 0
0.897410 0.047939 0
0.906026 0.083417 0
0.897571 0.141977 0
0.906244 0.238290 0
0.935478 0.312676 0
0.969230 0.318469 0
0.975129 0.249710 0
0.943778 0.122406 0
0.872367 0.009774 0
0.764237 -0.014552 0
0.624203 0.062827 0
0.616145 0.077826 0
0.619702 0.030106 0
1.000000 -0.000315 0
1.000131 -0.001028 0
1.000433 -0.001925 0
1.000871 -0.003086 0
1.001492 -0.004613 0
1.002339 -0.006593 0
1.003458 -0.009111 0
1.004928 -0.012252 0
1.006838 -0.016081 0
1.009176 -0.020720 0
1.011996 -0.026387 0
1.015341 -0.033385 0
1.019302 -0.042133 0
1.024051 -0.053180 0
1.029800 -0.067245 0
1.036830 -0.085328 0
1.045216 -0.109298 0
1.057717 -0.140901 0
1.074749 -0.183091 0
1.105568 -0.238199 0
1.151209 -0.303455 0
1.240140 -0.408561 0
1.495088 -0.412555 0
1.565959 -0.284659 0
1.563292 -0.187996 0
1.567573 -0.119115 0
1.586092 -0.039394 0
1.580699 0.044033 0
1.496367 0.073617 0
1.456360 0.037023 0
1.519806 0.021301 0
1.630115 0.104039 0
1.658486 0.246720 0
1.603730 0.366575 0
1.483057 0.428148 0
1.333550 0.437877 0
1.188843 0.437984 0
1.057297 0.496188 0
0.967849 0.578948 0
0.945558 0.509236 0
0.995484 0.266870 0
1.093529 -0.019665 0
1.146258 -0.191629 0
1.093807 -0.281952 0
0.856581 -0.563081 0
0.722561 -0.797981 0
0.835579 -0.690432 0
0.977926 -0.482918 0
1.051963 -0.311715 0
1.072931 -0.135709 0
1.109317 0.054480 0
1.141835 0.251837 0
1.150862 0.417792 0
1.133310 0.512152 0
1.110992 0.481133 0
1.021006 0.455273 0
0.826458 0.468913 0
0.776693 0.328699 0
0.804076 0.093941 0
0.776373 -0.075519 0
0.744585 -0.158424 0
0.747590 -0.182862 0
0.809607 -0.176352 0
0.805611 -0.204127 0
0.744230 -0.284856 0
0.713313 -0.318460 0
0.745024 -0.248967 0
0.794152 -0.143909 0
0.818391 -0.069370 0
0.828935 -0.014858 0
0.828462 0.070164 0
0.824245 0.195529 0
0.863844 0.266928 0
0.908295 0.217245 0
0.869011 0.123816 0
0.780121 0.074467 0
0.723731 0.076746 0
0.709169 0.095662 0
0.667235 0.112661 0
0.581739 0.136912 0
0.499150 0.139396 0
0.420353 0.086938 0
0.362587 -0.020198 0
0.333763 -0.166150 0
0.366067 -0.276840 0
0.459822 -0.284525 0
0.556265 -0.215592 0
0.610810 -0.107815 0
0.621363 0.027765 0
0.599690 0.148564 0
0.582680 0.215434 0
0.618983 0.239529 0
0.703413 0.236713 0
0.794875 0.201603 0
0.857763 0.154824 0
0.853067 0.133305 0
0.764663 0.147659 0
0.641121 0.189124 0
0.594860 0.155390 0
0.653903 0.057813 0
0.667779 0.019075 0
1.000000 -0.000357 0
1.000012 -0.001189 0
1.000248 -0.002208 0
1.000453 -0.003487 0
1.000790 -0.005186 0
1.001291 -0.007375 0
1.001954 -0.010162 0
1.002858 -0.013660 0
1.004194 -0.017848 0
1.005668 -0.022815 0
1.007369 -0.028818 0
1.009186 -0.036157 0
1.011057 -0.045319 0
1.013115 -0.056889 0
1.015354 -0.071583 0
1.017777 -0.090062 0
1.017816 -0.115880 0
1.022713 -0.150427 0
1.022523 -0.201089 0
1.043003 -0.268746 0
1.050427 -0.367861 0
1.154363 -0.619713 0
1.494831 -0.601580 0
1.406278 -0.288315 0
1.294594 -0.159253 0
1.219008 -0.121460 0
1.220322 -0.052324 0
1.285410 0.101787 0
1.245681 0.162169 0
0.957709 0.019927 0
1.104108 -0.110114 0
1.405169 -0.017623 0
1.542384 0.220105 0
1.585728 0.429947 0
1.533372 0.571903 0
1.411261 0.633256 0
1.239462 0.627370 0
1.087090 0.559107 0
1.008636 0.539261 0
0.972967 0.527077 0
0.922381 0.344644 0
0.780256 0.072912 0
0.639494 -0.129216 0
0.641741 -0.262445 0
0.704763 -0.470435 0
0.641881 -0.742631 0
0.647884 -0.823815 0
0.793260 -0.637706 0
0.922516 -0.364238 0
0.998318 -0.148790 0
1.043679 0.036942 0
1.072083 0.243199 0
1.063978 0.417995 0
1.074384 0.508824 0
1.093606 0.559594 0
0.925260 0.630728 0
0.775726 0.548673 0
0.720698 0.322267 0
0.648523 0.157224 0
0.576141 0.035192 0
0.539644 -0.087743 0
0.517862 -0.192229 0
0.520732 -0.257437 0
0.566760 -0.283376 0
0.613724 -0.298266 0
0.626583 -0.315419 0
0.638058 -0.296871 0
0.677052 -0.212306 0
0.716930 -0.096388 0
0.723945 0.004947 0
0.708255 0.085303 0
0.716225 0.149938 0
0.773533 0.197102 0
0.825462 0.226433 0
0.827209 0.216358 0
0.796829 0.152043 0
0.751043 0.088688 0
0.692952 0.098675 0
0.603549 0.185061 0
0.480702 0.266275 0
0.379697 0.255878 0
0.323625 0.159216 0
0.291865 0.019961 0
0.255454 -0.161393 0
0.232824 -0.340609 0
0.271833 -0.391081 0
0.367180 -0.271441 0
0.445074 -0.084989 0
0.499464 0.059062 0
0.560224 0.122103 0
0.624265 0.122688 0
0.664536 0.117560 0
0.682669 0.136787 0
0.683635 0.164123 0
0.659624 0.191522 0
0.620866 0.215510 0
0.594688 0.221724 0
0.613983 0.155254 0
0.711117 0.050048 0
0.761758 0.004911 0
0.774382 0.001393 0
1.000000 -0.000325 0
0.999937 -0.001273 0
1.000121 -0.002364 0
1.000119 -0.003625 0
1.000292 -0.005450 0
1.000225 -0.007756 0
1.000348 -0.010677 0
1.000636 -0.014491 0
1.001686 -0.018890 0
1.002156 -0.023892 0
1.002800 -0.029904 0
1.003422 -0.037072 0
1.002561 -0.046061 0
1.002872 -0.057475 0
1.001913 -0.071905 0
0.999426 -0.087788 0
0.994560 -0.114232 0
0.988858 -0.145607 0
0.976587 -0.203381 0
0.970193 -0.266103 0
0.938525 -0.414814 0
1.021723 -0.852965 0
0.727536 -0.580048 0
-0.002602 0.000000 0
-0.000461 0.000000 0
0.456066 -0.044118 0
0.395114 -0.105798 0
0.249772 0.018672 0
0.555512 0.401317 0
0.026525 0.178595 0
0.245134 -0.426160 0
0.766959 -0.334239 0
1.181510 0.066159 0
1.328428 0.375585 0
1.352507 0.602612 0
1.321616 0.731783 0
1.234374 0.762152 0
1.119332 0.727010 0
0.903665 0.693067 0
0.810135 0.595485 0
0.739221 0.459575 0
0.628201 0.263216 0
0.575799 -0.053120 0
0.621722 -0.347227 0
0.707161 -0.563227 0
0.727254 -0.741109 0
0.678904 -0.841817 0
0.706928 -0.757557 0
0.807507 -0.516780 0
0.902473 -0.256877 0
0.929336 -0.019291 0
0.945038 0.231532 0
1.000548 0.415485 0
1.068634 0.482520 0
1.009053 0.630253 0
0.870461 0.773150 0
0.856283 0.673471 0
0.878833 0.455899 0
0.862218 0.238495 0
0.813277 0.033358 0
0.742375 -0.100147 0
0.669490 -0.163953 0
0.590510 -0.225251 0
0.523604 -0.297120 0
0.497464 -0.344680 0
0.503104 -0.342795 0
0.513804 -0.299436 0
0.528921 -0.222781 0
0.556982 -0.116263 0
0.592559 -0.006183 0
0.623776 0.077884 0
0.650065 0.130250 0
0.682116 0.157692 0
0.726000 0.163569 0
0.791664 0.152449 0
0.852502 0.150634 0
0.850316 0.180624 0
0.761760 0.243158 0
0.624736 0.324913 0
0.511060 0.360766 0
0.467743 0.296474 0
0.463047 0.174771 0
0.458421 0.047975 0
0.426958 -0.107107 0
0.344499 -0.293217 0
0.247042 -0.418878 0
0.228660 -0.388830 0
0.304810 -0.240096 0
0.415567 -0.087382 0
0.509763 0.023766 0
0.550502 0.111125 0
0.532246 0.181129 0
0.496350 0.217617 0
0.475713 0.224651 0
0.481550 0.217597 0
0.519060 0.198245 0
0.589378 0.154545 0
0.684137 0.072699 0
0.731738 0.007619 0
0.746437 -0.005449 0
0.753918 -0.005833 0
1.000000 -0.000291 0
0.999942 -0.001306 0
1.000040 -0.002387 0
0.999906 -0.003657 0
0.999836 -0.005291 0
0.999526 -0.007430 0
0.999596 -0.010572 0
0.999146 -0.014996 0
0.999668 -0.019365 0
0.998686 -0.023927 0
0.998893 -0.030083 0
0.996839 -0.035917 0
0.997797 -0.044767 0
0.992782 -0.056238 0
0.992135 -0.068134 0
0.981950 -0.082708 0
0.982160 -0.105311 0
0.954300 -0.132452 0
0.954034 -0.182422 0
0.880327 -0.230682 0
0.872794 -0.419389 0
0.651566 -0.493148 0
0.000000 0.003074 0
-0.617194 0.197523 0
-0.524105 0.000000 0
0.000000 0.000000 0
-0.051915 0.146172 0
-0.095917 -0.058611 0
-0.169470 0.385414 0
0.046279 0.330304 0
-0.099325 -0.850548 0
-0.030044 -0.953999 0
0.590093 -0.341366 0
0.846844 0.258947 0
0.989441 0.578713 0
1.063544 0.751386 0
1.091702 0.829650 0
1.012141 0.889812 0
0.898760 0.848455 0
0.811481 0.691516 0
0.699644 0.526572 0
0.727267 0.236328 0
0.829212 -0.122743 0
0.899553 -0.393812 0
0.926624 -0.575974 0
0.910872 -0.714381 0
0.832826 -0.803495 0
0.762436 -0.766315 0
0.779616 -0.559790 0
0.801053 -0.270624 0
0.792331 -0.005628 0
0.803900 0.171982 0
0.873599 0.294394 0
0.885286 0.500314 0
0.771505 0.757763 0
0.800535 0.783495 0
0.920085 0.540298 0
0.948048 0.316329 0
0.897159 0.222777 0
0.843958 0.155034 0
0.771226 0.056042 0
0.677513 -0.040366 0
0.579535 -0.111553 0
0.496203 -0.190331 0
0.432888 -0.277766 0
0.400225 -0.331759 0
0.404277 -0.322689 0
0.431233 -0.255485 0
0.472597 -0.160027 0
0.528664 -0.061847 0
0.592938 0.027797 0
0.648185 0.091598 0
0.684249 0.121167 0
0.716388 0.116886 0
0.769800 0.089856 0
0.829767 0.093392 0
0.844848 0.179432 0
0.772987 0.324256 0
0.651909 0.435761 0
0.592672 0.423270 0
0.609796 0.303894 0
0.673712 0.168539 0
0.777743 0.056052 0
0.831442 -0.047468 0
0.744193 -0.160691 0
0.535169 -0.275240 0
0.327031 -0.329207 0
0.228629 -0.271893 0
0.223840 -0.145888 0
0.249378 -0.012829 0
0.274234 0.100208 0
0.307735 0.171715 0
0.358992 0.193324 0
0.424693 0.178927 0
0.502924 0.148178 0
0.592371 0.107685 0
0.684370 0.056650 0
0.760801 0.012897 0
0.790064 -0.012250 0
0.811078 -0.017266 0
0.819128 -0.013579 0
1.000000 -0.000264 0
1.000000 -0.001310 0
0.999787 -0.002327 0
0.999931 -0.003420 0
0.999450 -0.005067 0
0.999555 -0.007513 0
0.999163 -0.010295 0
0.999013 -0.014561 0
0.997168 -0.018427 0
0.997372 -0.023116 0
0.995672 -0.028055 0
0.993932 -0.035973 0
0.990923 -0.042001 0
0.989361 -0.051810 0
0.981519 -0.061070 0
0.975131 -0.077812 0
0.960215 -0.086580 0
0.944654 -0.117478 0
0.912881 -0.129405 0
0.854783 -0.184860 0
0.794904 -0.186049 0
0.468744 -0.057339 0
0.364639 -0.005650 0
0.000000 0.000000 0
0.000000 0.000000 0
0.000000 0.000000 0
0.000000 0.000000 0
0.163851 0.153906 0
-0.062747 0.259121 0
0.573779 0.108450 0
0.183178 -0.349837 0
-0.349167 -1.023656 0
-0.160026 -0.810730 0
0.303254 -0.023764 0
0.639017 0.385910 0
0.832853 0.629520 0
0.926795 0.813552 0
0.924312 0.919949 0
0.916062 0.893723 0
0.809772 0.794596 0
0.745203 0.543784 0
0.767977 0.133642 0
0.788147 -0.225412 0
0.813277 -0.444644 0
0.859704 -0.574552 0
0.914800 -0.647317 0
0.936236 -0.693387 0
0.857871 -0.704353 0
0.802829 -0.555402 0
0.836648 -0.269598 0
0.902670 -0.022143 0
0.958480 0.150260 0
0.923932 0.334094 0
0.798774 0.584610 0
0.797740 0.715001 0
0.955738 0.624566 0
1.046789 0.525956 0
0.926473 0.478822 0
0.841338 0.342583 0
0.799839 0.159289 0
0.708799 0.066296 0
0.585777 0.027736 0