# vtk DataFile Version 2.0
generated by CFD-lab course output (written by Tobias Neckel) 
ASCII

DATASET STRUCTURED_GRID
DIMENSIONS  101 21 1 
POINTS 2121 float

0.000000 0.000000 0
0.100000 0.000000 0
0.200000 0.000000 0
0.300000 0.000000 0
0.400000 0.000000 0
0.500000 0.000000 0
0.600000 0.000000 0
0.700000 0.000000 0
0.800000 0.000000 0
0.900000 0.000000 0
1.000000 0.000000 0
1.100000 0.000000 0
1.200000 0.000000 0
1.300000 0.000000 0
1.400000 0.000000 0
1.500000 0.000000 0
1.600000 0.000000 0
1.700000 0.000000 0
1.800000 0.000000 0
1.900000 0.000000 0
2.000000 0.000000 0
2.100000 0.000000 0
2.200000 0.000000 0
2.300000 0.000000 0
2.400000 0.000000 0
2.500000 0.000000 0
2.600000 0.000000 0
2.700000 0.000000 0
2.800000 0.000000 0
2.900000 0.000000 0
3.000000 0.000000 0
3.100000 0.000000 0
3.200000 0.000000 0
3.300000 0.000000 0
3.400000 0.000000 0
3.500000 0.000000 0
3.600000 0.000000 0
3.700000 0.000000 0
3.800000 0.000000 0
3.900000 0.000000 0
4.000000 0.000000 0
4.100000 0.000000 0
4.200000 0.000000 0
4.300000 0.000000 0
4.400000 0.000000 0
4.500000 0.000000 0
4.600000 0.000000 0
4.700000 0.000000 0
4.800000 0.000000 0
4.900000 0.000000 0
5.000000 0.000000 0
5.100000 0.000000 0
5.200000 0.000000 0
5.300000 0.000000 0
5.400000 0.000000 0
5.500000 0.000000 0
5.600000 0.000000 0
5.700000 0.000000 0
5.800000 0.000000 0
5.900000 0.000000 0
6.000000 0.000000 0
6.100000 0.000000 0
6.200000 0.000000 0
6.300000 0.000000 0
6.400000 0.000000 0
6.500000 0.000000 0
6.600000 0.000000 0
6.700000 0.000000 0
6.800000 0.000000 0
6.900000 0.000000 0
7.000000 0.000000 0
7.100000 0.000000 0
7.200000 0.000000 0
7.300000 0.000000 0
7.400000 0.000000 0
7.500000 0.000000 0
7.600000 0.000000 0
7.700000 0.000000 0
7.800000 0.000000 0
7.900000 0.000000 0
8.000000 0.000000 0
8.100000 0.000000 0
8.200000 0.000000 0
8.300000 0.000000 0
8.400000 0.000000 0
8.500000 0.000000 0
8.600000 0.000000 0
8.700000 0.000000 0
8.800000 0.000000 0
8.900000 0.000000 0
9.000000 0.000000 0
9.100000 0.000000 0
9.200000 0.000000 0
9.300000 0.000000 0
9.400000 0.000000 0
9.500000 0.000000 0
9.600000 0.000000 0
9.700000 0.000000 0
9.800000 0.000000 0
9.900000 0.000000 0
10.000000 0.000000 0
0.000000 0.100000 0
0.100000 0.100000 0
0.200000 0.100000 0
0.300000 0.100000 0
0.400000 0.100000 0
0.500000 0.100000 0
0.600000 0.100000 0
0.700000 0.100000 0
0.800000 0.100000 0
0.900000 0.100000 0
1.000000 0.100000 0
1.100000 0.100000 0
1.200000 0.100000 0
1.300000 0.100000 0
1.400000 0.100000 0
1.500000 0.100000 0
1.600000 0.100000 0
1.700000 0.100000 0
1.800000 0.100000 0
1.900000 0.100000 0
2.000000 0.100000 0
2.100000 0.100000 0
2.200000 0.100000 0
2.300000 0.100000 0
2.400000 0.100000 0
2.500000 0.100000 0
2.600000 0.100000 0
2.700000 0.100000 0
2.800000 0.100000 0
2.900000 0.100000 0
3.000000 0.100000 0
3.100000 0.100000 0
3.200000 0.100000 0
3.300000 0.100000 0
3.400000 0.100000 0
3.500000 0.100000 0
3.600000 0.100000 0
3.700000 0.100000 0
3.800000 0.100000 0
3.900000 0.100000 0
4.000000 0.100000 0
4.100000 0.100000 0
4.200000 0.100000 0
4.300000 0.100000 0
4.400000 0.100000 0
4.500000 0.100000 0
4.600000 0.100000 0
4.700000 0.100000 0
4.800000 0.100000 0
4.900000 0.100000 0
5.000000 0.100000 0
5.100000 0.100000 0
5.200000 0.100000 0
5.300000 0.100000 0
5.400000 0.100000 0
5.500000 0.100000 0
5.600000 0.100000 0
5.700000 0.100000 0
5.800000 0.100000 0
5.900000 0.100000 0
6.000000 0.100000 0
6.100000 0.100000 0
6.200000 0.100000 0
6.300000 0.100000 0
6.400000 0.100000 0
6.500000 0.100000 0
6.600000 0.100000 0
6.700000 0.100000 0
6.800000 0.100000 0
6.900000 0.100000 0
7.000000 0.100000 0
7.100000 0.100000 0
7.200000 0.100000 0
7.300000 0.100000 0
7.400000 0.100000 0
7.500000 0.100000 0
7.600000 0.100000 0
7.700000 0.100000 0
7.800000 0.100000 0
7.900000 0.100000 0
8.000000 0.100000 0
8.100000 0.100000 0
8.200000 0.100000 0
8.300000 0.100000 0
8.400000 0.100000 0
8.500000 0.100000 0
8.600000 0.100000 0
8.700000 0.100000 0
8.800000 0.100000 0
8.900000 0.100000 0
9.000000 0.100000 0
9.100000 0.100000 0
9.200000 0.100000 0
9.300000 0.100000 0
9.400000 0.100000 0
9.500000 0.100000 0
9.600000 0.100000 0
9.700000 0.100000 0
9.800000 0.100000 0
9.900000 0.100000 0
10.000000 0.100000 0
0.000000 0.200000 0
0.100000 0.200000 0
0.200000 0.200000 0
0.300000 0.200000 0
0.400000 0.200000 0
0.500000 0.200000 0
0.600000 0.200000 0
0.700000 0.200000 0
0.800000 0.200000 0
0.900000 0.200000 0
1.000000 0.200000 0
1.100000 0.200000 0
1.200000 0.200000 0
1.300000 0.200000 0
1.400000 0.200000 0
1.500000 0.200000 0
1.600000 0.200000 0
1.700000 0.200000 0
1.800000 0.200000 0
1.900000 0.200000 0
2.000000 0.200000 0
2.100000 0.200000 0
2.200000 0.200000 0
2.300000 0.200000 0
2.400000 0.200000 0
2.500000 0.200000 0
2.600000 0.200000 0
2.700000 0.200000 0
2.800000 0.200000 0
2.900000 0.200000 0
3.000000 0.200000 0
3.100000 0.200000 0
3.200000 0.200000 0
3.300000 0.200000 0
3.400000 0.200000 0
3.500000 0.200000 0
3.600000 0.200000 0
3.700000 0.200000 0
3.800000 0.200000 0
3.900000 0.200000 0
4.000000 0.200000 0
4.100000 0.200000 0
4.200000 0.200000 0
4.300000 0.200000 0
4.400000 0.200000 0
4.500000 0.200000 0
4.600000 0.200000 0
4.700000 0.200000 0
4.800000 0.200000 0
4.900000 0.200000 0
5.000000 0.200000 0
5.100000 0.200000 0
5.200000 0.200000 0
5.300000 0.200000 0
5.400000 0.200000 0
5.500000 0.200000 0
5.600000 0.200000 0
5.700000 0.200000 0
5.800000 0.200000 0
5.900000 0.200000 0
6.000000 0.200000 0
6.100000 0.200000 0
6.200000 0.200000 0
6.300000 0.200000 0
6.400000 0.200000 0
6.500000 0.200000 0
6.600000 0.200000 0
6.700000 0.200000 0
6.800000 0.200000 0
6.900000 0.200000 0
7.000000 0.200000 0
7.100000 0.200000 0
7.200000 0.200000 0
7.300000 0.200000 0
7.400000 0.200000 0
7.500000 0.200000 0
7.600000 0.200000 0
7.700000 0.200000 0
7.800000 0.200000 0
7.900000 0.200000 0
8.000000 0.200000 0
8.100000 0.200000 0
8.200000 0.200000 0
8.300000 0.200000 0
8.400000 0.200000 0
8.500000 0.200000 0
8.600000 0.200000 0
8.700000 0.200000 0
8.800000 0.200000 0
8.900000 0.200000 0
9.000000 0.200000 0
9.100000 0.200000 0
9.200000 0.200000 0
9.300000 0.200000 0
9.400000 0.200000 0
9.500000 0.200000 0
9.600000 0.200000 0
9.700000 0.200000 0
9.800000 0.200000 0
9.900000 0.200000 0
10.000000 0.200000 0
0.000000 0.300000 0
0.100000 0.300000 0
0.200000 0.300000 0
0.300000 0.300000 0
0.400000 0.300000 0
0.500000 0.300000 0
0.600000 0.300000 0
0.700000 0.300000 0
0.800000 0.300000 0
0.900000 0.300000 0
1.000000 0.300000 0
1.100000 0.300000 0
1.200000 0.300000 0
1.300000 0.300000 0
1.400000 0.300000 0
1.500000 0.300000 0
1.600000 0.300000 0
1.700000 0.300000 0
1.800000 0.300000 0
1.900000 0.300000 0
2.000000 0.300000 0
2.100000 0.300000 0
2.200000 0.300000 0
2.300000 0.300000 0
2.400000 0.300000 0
2.500000 0.300000 0
2.600000 0.300000 0
2.700000 0.300000 0
2.800000 0.300000 0
2.900000 0.300000 0
3.000000 0.300000 0
3.100000 0.300000 0
3.200000 0.300000 0
3.300000 0.300000 0
3.400000 0.300000 0
3.500000 0.300000 0
3.600000 0.300000 0
3.700000 0.300000 0
3.800000 0.300000 0
3.900000 0.300000 0
4.000000 0.300000 0
4.100000 0.300000 0
4.200000 0.300000 0
4.300000 0.300000 0
4.400000 0.300000 0
4.500000 0.300000 0
4.600000 0.300000 0
4.700000 0.300000 0
4.800000 0.300000 0
4.900000 0.300000 0
5.000000 0.300000 0
5.100000 0.300000 0
5.200000 0.300000 0
5.300000 0.300000 0
5.400000 0.300000 0
5.500000 0.300000 0
5.600000 0.300000 0
5.700000 0.300000 0
5.800000 0.300000 0
5.900000 0.300000 0
6.000000 0.300000 0
6.100000 0.300000 0
6.200000 0.300000 0
6.300000 0.300000 0
6.400000 0.300000 0
6.500000 0.300000 0
6.600000 0.300000 0
6.700000 0.300000 0
6.800000 0.300000 0
6.900000 0.300000 0
7.000000 0.300000 0
7.100000 0.300000 0
7.200000 0.300000 0
7.300000 0.300000 0
7.400000 0.300000 0
7.500000 0.300000 0
7.600000 0.300000 0
7.700000 0.300000 0
7.800000 0.300000 0
7.900000 0.300000 0
8.000000 0.300000 0
8.100000 0.300000 0
8.200000 0.300000 0
8.300000 0.300000 0
8.400000 0.300000 0
8.500000 0.300000 0
8.600000 0.300000 0
8.700000 0.300000 0
8.800000 0.300000 0
8.900000 0.300000 0
9.000000 0.300000 0
9.100000 0.300000 0
9.200000 0.300000 0
9.300000 0.300000 0
9.400000 0.300000 0
9.500000 0.300000 0
9.600000 0.300000 0
9.700000 0.300000 0
9.800000 0.300000 0
9.900000 0.300000 0
10.000000 0.300000 0
0.000000 0.400000 0
0.100000 0.400000 0
0.200000 0.400000 0
0.300000 0.400000 0
0.400000 0.400000 0
0.500000 0.400000 0
0.600000 0.400000 0
0.700000 0.400000 0
0.800000 0.400000 0
0.900000 0.400000 0
1.000000 0.400000 0
1.100000 0.400000 0
1.200000 0.400000 0
1.300000 0.400000 0
1.400000 0.400000 0
1.500000 0.400000 0
1.600000 0.400000 0
1.700000 0.400000 0
1.800000 0.400000 0
1.900000 0.400000 0
2.000000 0.400000 0
2.100000 0.400000 0
2.200000 0.400000 0
2.300000 0.400000 0
2.400000 0.400000 0
2.500000 0.400000 0
2.600000 0.400000 0
2.700000 0.400000 0
2.800000 0.400000 0
2.900000 0.400000 0
3.000000 0.400000 0
3.100000 0.400000 0
3.200000 0.400000 0
3.300000 0.400000 0
3.400000 0.400000 0
3.500000 0.400000 0
3.600000 0.400000 0
3.700000 0.400000 0
3.800000 0.400000 0
3.900000 0.400000 0
4.000000 0.400000 0
4.100000 0.400000 0
4.200000 0.400000 0
4.300000 0.400000 0
4.400000 0.400000 0
4.500000 0.400000 0
4.600000 0.400000 0
4.700000 0.400000 0
4.800000 0.400000 0
4.900000 0.400000 0
5.000000 0.400000 0
5.100000 0.400000 0
5.200000 0.400000 0
5.300000 0.400000 0
5.400000 0.400000 0
5.500000 0.400000 0
5.600000 0.400000 0
5.700000 0.400000 0
5.800000 0.400000 0
5.900000 0.400000 0
6.000000 0.400000 0
6.100000 0.400000 0
6.200000 0.400000 0
6.300000 0.400000 0
6.400000 0.400000 0
6.500000 0.400000 0
6.600000 0.400000 0
6.700000 0.400000 0
6.800000 0.400000 0
6.900000 0.400000 0
7.000000 0.400000 0
7.100000 0.400000 0
7.200000 0.400000 0
7.300000 0.400000 0
7.400000 0.400000 0
7.500000 0.400000 0
7.600000 0.400000 0
7.700000 0.400000 0
7.800000 0.400000 0
7.900000 0.400000 0
8.000000 0.400000 0
8.100000 0.400000 0
8.200000 0.400000 0
8.300000 0.400000 0
8.400000 0.400000 0
8.500000 0.400000 0
8.600000 0.400000 0
[...]
POINT_DATA 2121 

VECTORS velocity float
0.500000 0.000000 0
0.000004 0.000000 0
0.000009 0.000000 0
0.000006 0.000000 0
0.000003 0.000000 0
-0.000002 0.000000 0
-0.000018 0.000000 0
-0.000059 0.000000 0
-0.000093 0.000000 0
-0.000106 0.000000 0
-0.000123 0.000000 0
-0.000152 0.000000 0
-0.000190 0.000000 0
-0.000234 0.000000 0
-0.000281 0.000000 0
-0.000333 0.000000 0
-0.000391 0.000000 0
-0.000457 0.000000 0
-0.000532 0.000000 0
-0.000617 0.000000 0
-0.000710 0.000000 0
-0.000802 0.000000 0
-0.000878 0.000000 0
-0.000972 0.000000 0
-0.001147 0.000000 0
-0.001414 0.000000 0
-0.001573 0.000000 0
-0.001832 0.000000 0
-0.001951 0.000000 0
-0.001784 0.000000 0
-0.001152 0.000000 0
0.000022 0.000000 0
0.001285 0.000000 0
0.002791 0.000000 0
0.004032 0.000000 0
0.004940 0.000000 0
0.005423 0.000000 0
0.005406 0.000000 0
0.004797 0.000000 0
0.003445 0.000000 0
0.004920 0.000000 0
-0.000721 0.000000 0
-0.005635 0.000000 0
-0.009228 0.000000 0
-0.007891 0.000000 0
-0.009045 0.000000 0
-0.008786 0.000000 0
-0.006944 0.000000 0
-0.004215 0.000000 0
-0.000536 0.000000 0
0.002681 0.000000 0
0.005337 0.000000 0
0.007162 0.000000 0
0.008298 0.000000 0
0.008709 0.000000 0
0.008309 0.000000 0
0.006761 0.000000 0
0.003136 0.000000 0
-0.001447 0.000000 0
0.000779 0.000000 0
-0.003467 0.000000 0
-0.019125 0.000000 0
-0.011602 0.000000 0
0.011155 0.000000 0
0.021201 0.000000 0
0.018805 0.000000 0
0.008786 0.000000 0
0.002836 0.000000 0
-0.001133 0.000000 0
-0.002731 0.000000 0
-0.003509 0.000000 0
-0.004224 0.000000 0
-0.004819 0.000000 0
-0.005019 0.000000 0
-0.004591 0.000000 0
-0.003581 0.000000 0
-0.002412 0.000000 0
-0.000377 0.000000 0
0.005813 0.000000 0
0.020324 0.000000 0
0.020153 0.000000 0
0.003039 0.000000 0
-0.002779 0.000000 0
-0.001433 0.000000 0
0.001375 0.000000 0
0.003680 0.000000 0
0.004741 0.000000 0
0.004921 0.000000 0
0.004817 0.000000 0
0.004665 0.000000 0
0.004397 0.000000 0
0.003788 0.000000 0
0.002867 0.000000 0
0.001782 0.000000 0
0.000586 0.000000 0
-0.000695 0.000000 0
-0.002059 0.000000 0
-0.003244 0.000000 0
-0.004844 0.000000 0
-0.005733 0.000000 0
-0.006109 0.000000 0
1.000000 0.000340 0
0.999925 0.000836 0
0.999866 0.000981 0
0.999936 0.000823 0
1.000258 0.000534 0
1.000934 0.000165 0
1.002104 -0.000472 0
1.003952 -0.001576 0
1.006680 -0.002667 0
1.010383 -0.003624 0
1.015283 -0.004946 0
1.021691 -0.006699 0
1.030001 -0.008939 0
1.040698 -0.011749 0
1.054387 -0.015244 0
1.071814 -0.019546 0
1.093866 -0.024744 0
1.121539 -0.030818 0
1.155795 -0.037525 0
1.197298 -0.044256 0
1.245967 -0.049884 0
1.300253 -0.052759 0
1.356597 -0.050930 0
1.407715 -0.044070 0
1.448625 -0.034289 0
1.477178 -0.024127 0
1.495485 -0.015485 0
1.506766 -0.009411 0
1.513951 -0.005433 0
1.518646 -0.001907 0
1.520747 0.003461 0
1.517719 0.012205 0
1.504636 0.024072 0
1.476854 0.037881 0
1.434467 0.051711 0
1.378595 0.063641 0
1.311794 0.072245 0
1.238026 0.076455 0
1.161584 0.073587 0
1.086121 0.072420 0
1.011407 0.074637 0
0.946659 0.041326 0
0.925726 -0.020987 0
0.954103 -0.067801 0
1.026658 -0.090357 0
1.123120 -0.101224 0
1.234806 -0.103852 0
1.340437 -0.090410 0
1.425870 -0.065179 0
1.484209 -0.031619 0
1.504686 0.003071 0
1.490072 0.031775 0
1.450616 0.053841 0
1.392690 0.069150 0
1.323253 0.077021 0
1.247602 0.075862 0
1.171637 0.061610 0
1.110599 0.027959 0
1.112465 -0.006145 0
1.189583 -0.008582 0
1.188943 -0.037908 0
1.101852 -0.102785 0
1.036992 -0.074945 0
1.008551 0.052962 0
0.967351 0.138497 0
0.932306 0.119499 0
0.924756 0.054381 0
0.937376 0.003160 0
0.965087 -0.030854 0
1.002488 -0.047446 0
1.044336 -0.047045 0
1.087579 -0.046896 0
1.129204 -0.044971 0
1.165682 -0.039345 0
1.193445 -0.028911 0
1.207449 -0.014852 0
1.205281 -0.000247 0
1.184601 0.024003 0
1.120400 0.087713 0
1.019557 0.193873 0
0.923304 0.198108 0
0.838634 0.069460 0
0.753183 -0.013934 0
0.695838 -0.011814 0
0.659052 0.013718 0
0.616766 0.034504 0
0.566679 0.044348 0
0.516098 0.047150 0
0.466583 0.047561 0
0.416569 0.048263 0
0.365828 0.049296 0
0.318346 0.046861 0
0.275193 0.040009 0
0.239788 0.032107 0
0.212833 0.024060 0
0.195638 0.015515 0
0.184668 0.004415 0
0.189332 -0.002488 0
0.179437 -0.022246 0
0.219102 -0.026705 0
0.230358 -0.011829 0
1.000000 0.000070 0
1.000449 0.000128 0
1.001219 -0.000015 0
1.002234 -0.000397 0
1.003488 -0.001003 0
1.005133 -0.001850 0
1.007264 -0.003023 0
1.009911 -0.004582 0
1.013028 -0.006436 0
1.017159 -0.008608 0
1.022465 -0.011315 0
1.029165 -0.014725 0
1.037571 -0.019013 0
1.048110 -0.024394 0
1.061348 -0.031124 0
1.078017 -0.039488 0
1.099064 -0.049734 0
1.125688 -0.061939 0
1.159262 -0.075770 0
1.201132 -0.090183 0
1.252258 -0.102967 0
1.311855 -0.110642 0
1.378432 -0.107474 0
1.437407 -0.092041 0
1.479325 -0.069477 0
1.505130 -0.046874 0
1.519358 -0.029602 0
1.527372 -0.018479 0
1.532910 -0.011895 0
1.538049 -0.006810 0
1.543962 0.000913 0
1.549023 0.016097 0
1.545937 0.040851 0
1.525640 0.070156 0
1.486065 0.098246 0
1.431180 0.122660 0
1.363844 0.140556 0
1.288284 0.150198 0
1.208372 0.151893 0
1.123443 0.150166 0
1.044823 0.139451 0
0.990411 0.085670 0
0.914634 -0.007454 0
0.885561 -0.100942 0
0.944877 -0.169027 0
1.036923 -0.208158 0
1.147622 -0.217325 0
1.264204 -0.191073 0
1.364339 -0.143780 0
1.445138 -0.078823 0
1.491902 -0.005870 0
1.505946 0.054063 0
1.488218 0.097375 0
1.443621 0.127357 0
1.382807 0.145083 0
1.314557 0.151610 0
1.241103 0.136998 0
1.174228 0.059168 0
1.114589 -0.078989 0
1.010867 -0.076482 0
0.896838 0.087727 0
0.762300 0.151947 0
0.686716 0.093297 0
0.728756 0.069638 0
0.822612 0.076242 0
0.910379 0.042591 0
0.975452 -0.005073 0
1.024986 -0.040333 0
1.069693 -0.065114 0
1.100292 -0.079251 0
1.129468 -0.085092 0
1.154775 -0.084868 0
1.174229 -0.078104 0
1.185883 -0.064240 0
1.189846 -0.041766 0
1.173892 -0.011835 0
1.142962 0.022850 0
1.141206 0.084885 0
1.099621 0.165048 0
0.995098 0.197101 0
0.948080 0.180929 0
0.936042 0.170127 0
0.907857 0.142802 0
0.822746 0.094139 0
0.705020 0.079081 0
0.599676 0.092383 0
0.519159 0.100679 0
0.459938 0.100107 0
0.415054 0.099541 0
0.373888 0.100768 0
0.335481 0.098237 0
0.301666 0.090648 0
0.271941 0.078573 0
0.244291 0.062376 0
0.221172 0.044165 0
0.204952 0.028180 0
0.191556 0.006322 0
0.197661 0.005247 0
0.173535 -0.029754 0
0.173779 -0.050904 0
0.183344 -0.023240 0
1.000000 -0.000113 0
1.000312 -0.000387 0
1.000894 -0.000806 0
1.001715 -0.001448 0
1.002794 -0.002367 0
1.004206 -0.003613 0
1.006023 -0.005252 0
1.008306 -0.007343 0
1.011141 -0.009917 0
1.014763 -0.013064 0
1.019352 -0.016956 0
1.025110 -0.021808 0
1.032298 -0.027887 0
1.041280 -0.035530 0
1.052557 -0.045155 0
1.066814 -0.057267 0
1.085027 -0.072419 0
1.108695 -0.091021 0
1.139796 -0.112974 0
1.180838 -0.137257 0
1.234707 -0.160613 0
1.301601 -0.178938 0
1.393059 -0.176488 0
1.464603 -0.144968 0
1.506803 -0.102018 0
1.526270 -0.064167 0
1.531000 -0.037733 0
1.530635 -0.022968 0
1.531076 -0.016116 0
1.533832 -0.012965 0
1.543106 -0.007519 0
1.560039 0.010225 0
1.573048 0.047450 0
1.563291 0.097747 0
1.523912 0.146166 0
1.465376 0.185857 0
1.394585 0.215135 0
1.314887 0.231922 0
1.228230 0.238424 0
1.143188 0.235964 0
1.066421 0.207664 0
0.953875 0.171511 0
0.749131 0.083859 0
0.669770 -0.098047 0
0.692856 -0.241723 0
0.696002 -0.303973 0
0.778185 -0.331136 0
0.941898 -0.307129 0
1.107545 -0.246117 0
1.222433 -0.159185 0
1.301510 -0.057739 0
1.364333 0.035456 0
1.398285 0.116163 0
1.398022 0.174558 0
1.366532 0.206083 0
1.312165 0.217564 0
1.248103 0.201937 0
1.162742 0.154471 0
0.997902 0.157214 0
0.769475 0.209168 0
0.594992 0.210657 0
0.567293 0.107335 0
0.635710 -0.041403 0
0.776742 -0.082936 0
0.878758 -0.043128 0
0.908653 -0.033342 0
0.892704 -0.060226 0
0.881905 -0.091081 0
0.893082 -0.106161 0
0.923195 -0.107222 0
0.965555 -0.101528 0
1.014188 -0.091657 0
1.059220 -0.076079 0
1.091940 -0.054961 0
1.110698 -0.016920 0
1.119866 0.032033 0
1.093018 0.032440 0
1.011367 0.067344 0
0.940437 0.233823 0
0.918749 0.345417 0
0.942582 0.257166 0
0.948334 0.109686 0
0.865476 0.099365 0
0.728500 0.191027 0
0.602493 0.236792 0
0.515146 0.220369 0
0.466331 0.184090 0
0.457206 0.151260 0
0.474329 0.133616 0
0.479715 0.127841 0
0.461884 0.121523 0
0.440332 0.110407 0
0.426388 0.097390 0
0.408156 0.082881 0
0.381230 0.063405 0
0.359064 0.045137 0
0.348326 0.011712 0
0.349974 0.015540 0
0.393464 0.001642 0
0.365578 -0.036508 0
0.373796 -0.031520 0
1.000000 -0.000245 0
1.000219 -0.000770 0
1.000651 -0.001420 0
1.001277 -0.002299 0
1.002129 -0.003496 0
1.003264 -0.005082 0
1.004732 -0.007125 0
1.006593 -0.009702 0
1.008938 -0.012896 0
1.011900 -0.016823 0
1.015601 -0.021665 0
1.020184 -0.027674 0
1.025830 -0.035188 0
1.032806 -0.044657 0
1.041498 -0.056662 0
1.052452 -0.071963 0
1.066446 -0.091620 0
1.085326 -0.116713 0
1.111575 -0.147919 0
1.149493 -0.185099 0
1.203903 -0.223735 0
1.277141 -0.268999 0
1.424270 -0.270482 0
1.513460 -0.205790 0
1.551412 -0.131149 0
1.558576 -0.071077 0
1.545547 -0.033973 0
1.530173 -0.018561 0
1.522736 -0.015097 0
1.516993 -0.018847 0
1.524619 -0.025300 0
1.561059 -0.013850 0
1.610288 0.037594 0
1.625679 0.119287 0
1.587739 0.196156 0
1.503789 0.251982 0
1.402524 0.291041 0
1.310670 0.316548 0
1.246609 0.323587 0
1.177212 0.311971 0
1.082521 0.328759 0
0.982852 0.402956 0
0.977157 0.276647 0
0.837830 -0.044671 0
0.484818 -0.195262 0
0.310857 -0.293490 0
0.313426 -0.463225 0
0.453823 -0.520436 0
0.675907 -0.424318 0
0.872229 -0.272791 0
1.022982 -0.147772 0
1.120426 -0.042714 0
1.182852 0.063683 0
1.230137 0.159108 0
1.255415 0.230938 0
1.244513 0.270036 0
1.205036 0.286419 0
1.126343 0.309367 0
0.983698 0.314276 0
0.804924 0.326425 0
0.734758 0.289907 0
0.853416 0.111228 0
0.874348 -0.116153 0
0.703246 -0.173412 0
0.588033 -0.055670 0
0.536087 0.028644 0
0.493691 0.021674 0
0.465686 -0.040712 0
0.466308 -0.106405 0
0.501713 -0.151724 0
0.565741 -0.176085 0
0.646910 -0.178534 0
0.733763 -0.155856 0
0.815734 -0.115717 0
0.872171 -0.069692 0
0.893904 0.005845 0
0.870374 0.131350 0
0.792429 0.237467 0
0.792561 0.257668 0
0.908337 0.194957 0
0.963829 0.151345 0
0.841344 0.247235 0
0.625949 0.362640 0
0.506379 0.357126 0
0.506235 0.292438 0
0.565211 0.228548 0
0.631340 0.158622 0
0.663629 0.092114 0
0.633636 0.077038 0
0.567876 0.113218 0
0.516806 0.137624 0
0.494868 0.126150 0
0.476126 0.110755 0
0.443640 0.107539 0
0.402487 0.093262 0
0.373087 0.061089 0
0.377826 0.015418 0
0.380301 -0.039885 0
0.444443 -0.045353 0
0.494023 -0.031231 0
0.508630 -0.039657 0
1.000000 -0.000336 0
1.000132 -0.001043 0
1.000432 -0.001866 0
1.000841 -0.002928 0
1.001429 -0.004356 0
1.002264 -0.006218 0
1.003348 -0.008584 0
1.004719 -0.011552 0
1.006461 -0.015227 0
1.008651 -0.019730 0
1.011334 -0.025244 0
1.014566 -0.032041 0
1.018403 -0.040513 0
1.022974 -0.051201 0
1.028519 -0.064806 0
1.035350 -0.082220 0
1.043278 -0.105297 0
1.054886 -0.136154 0
1.072034 -0.177147 0
1.102568 -0.229591 0
1.147822 -0.288267 0
1.229043 -0.399310 0
1.484794 -0.412813 0
1.561815 -0.272117 0
1.564920 -0.147140 0
1.552776 -0.058307 0
1.508993 -0.009336 0
1.468769 -0.000163 0
1.454798 -0.002942 0
1.423533 -0.014853 0
1.401770 -0.051590 0
1.443929 -0.075449 0
1.571883 -0.017175 0
1.652496 0.120290 0
1.662603 0.268050 0
1.595860 0.371068 0
1.474187 0.408250 0
1.327737 0.387832 0
1.174875 0.371878 0
1.055957 0.400048 0
1.054460 0.402020 0
1.087084 0.276871 0
1.053078 0.228878 0
0.735480 0.394288 0
0.441396 0.285246 0
0.353539 -0.132585 0
0.291490 -0.474106 0
0.254903 -0.669614 0
0.343855 -0.664526 0
0.533863 -0.506263 0
0.726431 -0.305939 0
0.874512 -0.124417 0
0.975342 0.006449 0
1.045278 0.101993 0
1.091321 0.191705 0
1.117625 0.267941 0
1.121432 0.320106 0
1.097138 0.375807 0
1.042436 0.478631 0
0.935799 0.458107 0
0.928126 0.162164 0
0.979695 -0.032257 0
0.871778 0.108765 0
0.588715 0.203377 0
0.401458 0.124030 0
0.328432 0.060999 0
0.301438 0.010173 0
0.285033 -0.063699 0
0.278894 -0.142188 0
0.299493 -0.206656 0
0.354062 -0.246726 0
0.430696 -0.259680 0
0.512190 -0.244903 0
0.579217 -0.193368 0
0.619942 -0.095091 0
0.636741 0.033831 0
0.667871 0.133916 0
0.746757 0.145158 0
0.825240 0.117917 0
0.830933 0.174151 0
0.700975 0.324162 0
0.527316 0.447568 0
0.463306 0.434333 0
0.507415 0.310744 0
0.627420 0.177962 0
0.780455 0.095267 0
0.891735 0.085676 0
0.901104 0.148967 0
0.814179 0.229373 0
0.712479 0.244675 0
0.641724 0.194536 0
0.576963 0.151092 0
0.502351 0.148622 0
0.436789 0.156525 0
0.399046 0.133963 0
0.386295 0.069803 0
0.398224 0.004503 0
0.432614 -0.051073 0
0.451818 -0.112075 0
0.493124 -0.100689 0
0.506501 -0.061163 0
1.000000 -0.000381 0
1.000020 -0.001208 0
1.000276 -0.002131 0
1.000433 -0.003299 0
1.000711 -0.004922 0
1.001251 -0.007004 0
1.001927 -0.009583 0
1.002744 -0.012818 0
1.003818 -0.016831 0
1.005187 -0.021699 0
1.006781 -0.027583 0
1.008593 -0.034746 0
1.010470 -0.043600 0
1.012439 -0.054778 0
1.014563 -0.069043 0
1.017174 -0.086727 0
1.016988 -0.111161 0
1.020915 -0.145474 0
1.021047 -0.195606 0
1.040731 -0.260893 0
1.052955 -0.350216 0
1.161598 -0.605977 0
1.491286 -0.603259 0
1.404404 -0.285922 0
1.304750 -0.122116 0
1.260481 -0.015157 0
1.259137 0.050028 0
1.116920 0.035628 0
1.073694 0.030133 0
1.091307 0.034176 0
0.836301 -0.045701 0
0.835743 -0.183968 0
1.258671 -0.170978 0
1.433822 0.028561 0
1.530727 0.252787 0
1.557500 0.440393 0
1.510524 0.559159 0
1.374997 0.615856 0
1.166938 0.595362 0
1.009499 0.432381 0
1.003205 0.297628 0
0.930284 0.404334 0
0.544894 0.628247 0
0.328462 0.567007 0
0.502959 0.186675 0
0.639422 -0.143588 0
0.649738 -0.364592 0
0.528654 -0.572804 0
0.391870 -0.703281 0
0.388294 -0.655370 0
0.499395 -0.488424 0
0.654141 -0.291628 0
0.800233 -0.107085 0
0.901741 0.043126 0
0.961554 0.158588 0
1.002741 0.239924 0
1.028527 0.306903 0
1.037371 0.388361 0
1.043316 0.475614 0
1.095729 0.440733 0
1.093272 0.246009 0
0.894436 0.167574 0
0.679627 0.274826 0
0.596985 0.296907 0
0.496288 0.204612 0
0.383971 0.128663 0
0.308070 0.065072 0
0.260522 -0.018168 0
0.231181 -0.120866 0
0.224490 -0.226893 0
0.248235 -0.307288 0
0.301177 -0.336662 0
0.368204 -0.304377 0
0.434369 -0.223470 0
0.496170 -0.127215 0
0.562801 -0.042083 0
0.640884 0.021335 0
0.688468 0.080099 0
0.656017 0.173492 0
0.545728 0.319225 0
0.450960 0.454965 0
0.455707 0.484905 0
0.564635 0.382544 0
0.704891 0.193015 0
0.804067 0.019400 0
0.831544 -0.035763 0
0.835780 0.037977 0
0.858965 0.169673 0
0.898316 0.265667 0
0.931393 0.285676 0
0.915654 0.273144 0
0.840032 0.265527 0
0.741996 0.250933 0
0.660597 0.210849 0
0.612191 0.143761 0
0.593541 0.061917 0
0.596095 -0.030896 0
0.620608 -0.093475 0
0.651384 -0.105858 0
0.677928 -0.085909 0
0.691572 -0.067225 0
1.000000 -0.000360 0
0.999946 -0.001325 0
1.000107 -0.002282 0
1.000209 -0.003366 0
1.000230 -0.005178 0
1.000326 -0.007437 0
1.000399 -0.010080 0
1.000511 -0.013446 0
1.001168 -0.017674 0
1.001778 -0.022696 0
1.002252 -0.028653 0
1.003146 -0.035733 0
1.002048 -0.044364 0
1.003353 -0.055299 0
1.001144 -0.069545 0
0.999545 -0.084650 0
0.994145 -0.109043 0
0.989724 -0.140218 0
0.974862 -0.196969 0
0.974252 -0.261504 0
0.932172 -0.409140 0
1.037849 -0.837647 0
0.728678 -0.570038 0
0.000114 0.000000 0
-0.000705 0.000000 0
0.495672 -0.009477 0
0.523275 0.134219 0
0.179936 0.185273 0
0.350491 0.022665 0
0.171279 0.222534 0
0.064288 0.203969 0
0.156306 -0.497825 0
0.583001 -0.615260 0
1.051396 -0.151771 0
1.216454 0.144367 0
1.286271 0.391266 0
1.322693 0.590748 0
1.290889 0.731413 0
1.215677 0.737371 0
1.098290 0.563776 0
0.867888 0.481232 0
0.526286 0.735178 0
0.287987 0.830695 0
0.388371 0.436219 0
0.481566 -0.025718 0
0.518939 -0.279368 0
0.595744 -0.363341 0
0.643357 -0.411749 0
0.570434 -0.524169 0
0.465272 -0.613791 0
0.451009 -0.571789 0
0.526261 -0.425257 0
0.648959 -0.241154 0
0.771680 -0.059331 0
0.872348 0.090701 0
0.943071 0.200965 0
0.983280 0.285474 0
1.003502 0.361016 0
1.038240 0.420272 0
1.106424 0.408148 0
1.107136 0.363454 0
0.925888 0.381387 0
0.728431 0.406213 0
0.622424 0.386714 0
0.510633 0.337043 0
0.415362 0.249215 0
0.354690 0.133622 0
0.313090 0.013190 0
0.273943 -0.106158 0
0.234366 -0.223711 0
0.216812 -0.323414 0
0.230300 -0.379649 0
0.263892 -0.378095 0
0.324322 -0.321334 0
0.404153 -0.223523 0
0.480253 -0.110882 0
0.524662 0.008250 0
0.516167 0.130025 0
0.469116 0.260658 0
0.438961 0.379210 0
0.498076 0.414184 0
0.651349 0.333894 0
0.828649 0.185151 0
0.945579 0.071315 0
0.971520 0.051312 0
0.929434 0.063557 0
0.883131 0.058258 0
0.840932 0.086434 0
0.843066 0.156948 0
0.857337 0.227341 0
0.846666 0.285901 0
0.811263 0.324754 0
0.768263 0.328060 0
0.733872 0.286334 0
0.721981 0.201024 0
0.729392 0.085903 0
0.747874 -0.022559 0
0.747647 -0.106357 0
0.741158 -0.169391 0
0.783013 -0.140873 0
0.797389 -0.088914 0
1.000000 -0.000331 0
1.000008 -0.001320 0
0.999961 -0.002397 0
1.000014 -0.003425 0
0.999897 -0.005042 0
0.999532 -0.007176 0
0.999599 -0.009771 0
0.999152 -0.013590 0
0.999435 -0.018102 0
0.998741 -0.022787 0
0.998645 -0.028955 0
0.996373 -0.034547 0
0.997517 -0.043811 0
0.993106 -0.053878 0
0.992716 -0.065240 0
0.980478 -0.079733 0
0.982040 -0.101344 0
0.957956 -0.126196 0
0.953168 -0.180140 0
0.884426 -0.218207 0
0.867883 -0.413819 0
0.653794 -0.488076 0
0.000000 0.000912 0
-0.614455 0.180895 0
-0.529045 0.000000 0
0.000000 0.000000 0
-0.002606 0.372631 0
0.128064 0.208406 0
-0.203957 0.038785 0
-0.140404 0.320373 0
0.055581 -0.030734 0
0.153741 -0.702687 0
0.078689 -1.066074 0
0.550745 -0.604897 0
0.876779 0.017908 0
1.018691 0.334149 0
1.085505 0.554536 0
1.128931 0.722867 0
1.108809 0.787957 0
0.961942 0.780165 0
0.668209 0.869628 0
0.378973 0.984231 0
0.405419 0.766157 0
0.463984 0.373424 0
0.377932 0.056104 0
0.278698 -0.257769 0
0.273589 -0.489014 0
0.396490 -0.547498 0
0.518448 -0.525200 0
0.537101 -0.535948 0
0.509069 -0.549416 0
0.523525 -0.489581 0
0.593854 -0.352506 0
0.695107 -0.180266 0
0.798938 -0.012806 0
0.885756 0.128989 0
0.944543 0.246470 0
0.985151 0.333398 0
1.023516 0.372690 0
1.069587 0.371835 0
1.054134 0.426543 0
0.943646 0.546277 0
0.827405 0.578288 0
0.734356 0.514703 0
0.693239 0.411672 0
0.688229 0.284605 0
0.677581 0.167343 0
0.646855 0.062576 0
0.581385 -0.042144 0
0.476749 -0.169763 0
0.380434 -0.303223 0
0.330633 -0.383743 0
0.302459 -0.398399 0
0.304695 -0.363731 0
0.337338 -0.283146 0
0.385323 -0.162592 0
0.424581 -0.014580 0
0.456277 0.135645 0
0.493512 0.250700 0
0.585307 0.290266 0
0.739769 0.242578 0
0.902785 0.154334 0
1.002874 0.088316 0
1.029801 0.050145 0
1.025531 0.035548 0
1.028039 0.052629 0
1.003545 0.126482 0
0.909711 0.209741 0
0.806301 0.249265 0
0.724960 0.282080 0
0.677349 0.319222 0
0.672479 0.343934 0
0.711432 0.328327 0
0.778118 0.257134 0
0.849181 0.148245 0
0.911531 0.036028 0
0.951945 -0.049147 0
0.970189 -0.086755 0
0.958864 -0.141220 0
0.924472 -0.142135 0
0.919688 -0.097556 0
1.000000 -0.000372 0
1.000074 -0.001292 0
0.999884 -0.002290 0
0.999813 -0.003305 0
0.999559 -0.004699 0
0.999393 -0.007143 0
0.999150 -0.009703 0
0.999056 -0.013286 0
0.997909 -0.017266 0
0.996833 -0.021910 0
0.995812 -0.026289 0
0.993897 -0.034610 0
0.991746 -0.041100 0
0.987462 -0.050503 0
0.982015 -0.056922 0
0.975360 -0.073979 0
0.961803 -0.086527 0
0.943541 -0.111352 0
0.918522 -0.123444 0
0.849715 -0.176225 0
0.804256 -0.178514 0
0.467045 -0.048333 0
0.356763 0.005191 0
0.000000 0.000000 0
0.000000 0.000000 0
0.000000 0.000000 0
0.000000 0.000000 0
0.359605 0.373595 0
0.182754 0.291127 0
0.255271 -0.037010 0
0.206448 -0.090182 0
0.167481 -0.520939 0
-0.035800 -1.012269 0
-0.007078 -0.949865 0
0.476790 -0.323585 0
0.775063 0.182535 0
0.899971 0.480503 0
0.959283 0.708104 0
0.908362 0.904354 0
0.773098 1.004372 0
0.590065 1.064197 0
0.523348 0.997963 0
0.580465 0.745680 0
0.550107 0.463702 0
0.571486 0.159565 0
0.606268 -0.175028 0
0.535864 -0.481136 0
0.442389 -0.656612 0
0.456896 -0.664784 0
0.527611 -0.604415 0
0.561255 -0.558216 0
0.568904 -0.510046 0
0.603942 -0.412738 0
0.673851 -0.264418 0
0.751161 -0.099950 0
0.818562 0.055358 0
0.872812 0.186075 0
0.927609 0.282041 0
0.978043 0.335834 0
1.003012 0.377528 0
0.979654 0.489393 0
0.962063 0.608113 0