# vtk DataFile Version 2.0
generated by CFD-lab course output (written by Tobias Neckel) 
ASCII

DATASET STRUCTURED_GRID
DIMENSIONS  101 21 1 
POINTS 2121 float

0.000000 0.000000 0
0.100000 0.000000 0
0.200000 0.000000 0
0.300000 0.000000 0
0.400000 0.000000 0
0.500000 0.000000 0
0.600000 0.000000 0
0.700000 0.000000 0
0.800000 0.000000 0
0.900000 0.000000 0
1.000000 0.000000 0
1.100000 0.000000 0
1.200000 0.000000 0
1.300000 0.000000 0
1.400000 0.000000 0
1.500000 0.000000 0
1.600000 0.000000 0
1.700000 0.000000 0
1.800000 0.000000 0
1.900000 0.000000 0
2.000000 0.000000 0
2.100000 0.000000 0
2.200000 0.000000 0
2.300000 0.000000 0
2.400000 0.000000 0
2.500000 0.000000 0
2.600000 0.000000 0
2.700000 0.000000 0
2.800000 0.000000 0
2.900000 0.000000 0
3.000000 0.000000 0
3.100000 0.000000 0
3.200000 0.000000 0
3.300000 0.000000 0
3.400000 0.000000 0
3.500000 0.000000 0
3.600000 0.000000 0
3.700000 0.000000 0
3.800000 0.000000 0
3.900000 0.000000 0
4.000000 0.000000 0
4.100000 0.000000 0
4.200000 0.000000 0
4.300000 0.000000 0
4.400000 0.000000 0
4.500000 0.000000 0
4.600000 0.000000 0
4.700000 0.000000 0
4.800000 0.000000 0
4.900000 0.000000 0
5.000000 0.000000 0
5.100000 0.000000 0
5.200000 0.000000 0
5.300000 0.000000 0
5.400000 0.000000 0
5.500000 0.000000 0
5.600000 0.000000 0
5.700000 0.000000 0
5.800000 0.000000 0
5.900000 0.000000 0
6.000000 0.000000 0
6.100000 0.000000 0
6.200000 0.000000 0
6.300000 0.000000 0
6.400000 0.000000 0
6.500000 0.000000 0
6.600000 0.000000 0
6.700000 0.000000 0
6.800000 0.000000 0
6.900000 0.000000 0
7.000000 0.000000 0
7.100000 0.000000 0
7.200000 0.000000 0
7.300000 0.000000 0
7.400000 0.000000 0
7.500000 0.000000 0
7.600000 0.000000 0
7.700000 0.000000 0
7.800000 0.000000 0
7.900000 0.000000 0
8.000000 0.000000 0
8.100000 0.000000 0
8.200000 0.000000 0
8.300000 0.000000 0
8.400000 0.000000 0
8.500000 0.000000 0
8.600000 0.000000 0
8.700000 0.000000 0
8.800000 0.000000 0
8.900000 0.000000 0
9.000000 0.000000 0
9.100000 0.000000 0
9.200000 0.000000 0
9.300000 0.000000 0
9.400000 0.000000 0
9.500000 0.000000 0
9.600000 0.000000 0
9.700000 0.000000 0
9.800000 0.000000 0
9.900000 0.000000 0
10.000000 0.000000 0
0.000000 0.100000 0
0.100000 0.100000 0
0.200000 0.100000 0
0.300000 0.100000 0
0.400000 0.100000 0
0.500000 0.100000 0
0.600000 0.100000 0
0.700000 0.100000 0
0.800000 0.100000 0
0.900000 0.100000 0
1.000000 0.100000 0
1.100000 0.100000 0
1.200000 0.100000 0
1.300000 0.100000 0
1.400000 0.100000 0
1.500000 0.100000 0
1.600000 0.100000 0
1.700000 0.100000 0
1.800000 0.100000 0
1.900000 0.100000 0
2.000000 0.100000 0
2.100000 0.100000 0
2.200000 0.100000 0
2.300000 0.100000 0
2.400000 0.100000 0
2.500000 0.100000 0
2.600000 0.100000 0
2.700000 0.100000 0
2.800000 0.100000 0
2.900000 0.100000 0
3.000000 0.100000 0
3.100000 0.100000 0
3.200000 0.100000 0
3.300000 0.100000 0
3.400000 0.100000 0
3.500000 0.100000 0
3.600000 0.100000 0
3.700000 0.100000 0
3.800000 0.100000 0
3.900000 0.100000 0
4.000000 0.100000 0
4.100000 0.100000 0
4.200000 0.100000 0
4.300000 0.100000 0
4.400000 0.100000 0
4.500000 0.100000 0
4.600000 0.100000 0
4.700000 0.100000 0
4.800000 0.100000 0
4.900000 0.100000 0
5.000000 0.100000 0
5.100000 0.100000 0
5.200000 0.100000 0
5.300000 0.100000 0
5.400000 0.100000 0
5.500000 0.100000 0
5.600000 0.100000 0
5.700000 0.100000 0
5.800000 0.100000 0
5.900000 0.100000 0
6.000000 0.100000 0
6.100000 0.100000 0
6.200000 0.100000 0
6.300000 0.100000 0
6.400000 0.100000 0
6.500000 0.100000 0
6.600000 0.100000 0
6.700000 0.100000 0
6.800000 0.100000 0
6.900000 0.100000 0
7.000000 0.100000 0
7.100000 0.100000 0
7.200000 0.100000 0
7.300000 0.100000 0
7.400000 0.100000 0
7.500000 0.100000 0
7.600000 0.100000 0
7.700000 0.100000 0
7.800000 0.100000 0
7.900000 0.100000 0
8.000000 0.100000 0
8.100000 0.100000 0
8.200000 0.100000 0
8.300000 0.100000 0
8.400000 0.100000 0
8.500000 0.100000 0
8.600000 0.100000 0
8.700000 0.100000 0
8.800000 0.100000 0
8.900000 0.100000 0
9.000000 0.100000 0
9.100000 0.100000 0
9.200000 0.100000 0
9.300000 0.100000 0
9.400000 0.100000 0
9.500000 0.100000 0
9.600000 0.100000 0
9.700000 0.100000 0
9.800000 0.100000 0
9.900000 0.100000 0
10.000000 0.100000 0
0.000000 0.200000 0
0.100000 0.200000 0
0.200000 0.200000 0
0.300000 0.200000 0
0.400000 0.200000 0
0.500000 0.200000 0
0.600000 0.200000 0
0.700000 0.200000 0
0.800000 0.200000 0
0.900000 0.200000 0
1.000000 0.200000 0
1.100000 0.200000 0
1.200000 0.200000 0
1.300000 0.200000 0
1.400000 0.200000 0
1.500000 0.200000 0
1.600000 0.200000 0
1.700000 0.200000 0
1.800000 0.200000 0
1.900000 0.200000 0
2.000000 0.200000 0
2.100000 0.200000 0
2.200000 0.200000 0
2.300000 0.200000 0
2.400000 0.200000 0
2.500000 0.200000 0
2.600000 0.200000 0
2.700000 0.200000 0
2.800000 0.200000 0
2.900000 0.200000 0
3.000000 0.200000 0
3.100000 0.200000 0
3.200000 0.200000 0
3.300000 0.200000 0
3.400000 0.200000 0
3.500000 0.200000 0
3.600000 0.200000 0
3.700000 0.200000 0
3.800000 0.200000 0
3.900000 0.200000 0
4.000000 0.200000 0
4.100000 0.200000 0
4.200000 0.200000 0
4.300000 0.200000 0
4.400000 0.200000 0
4.500000 0.200000 0
4.600000 0.200000 0
4.700000 0.200000 0
4.800000 0.200000 0
4.900000 0.200000 0
5.000000 0.200000 0
5.100000 0.200000 0
5.200000 0.200000 0
5.300000 0.200000 0
5.400000 0.200000 0
5.500000 0.200000 0
5.600000 0.200000 0
5.700000 0.200000 0
5.800000 0.200000 0
5.900000 0.200000 0
6.000000 0.200000 0
6.100000 0.200000 0
6.200000 0.200000 0
6.300000 0.200000 0
6.400000 0.200000 0
6.500000 0.200000 0
6.600000 0.200000 0
6.700000 0.200000 0
6.800000 0.200000 0
6.900000 0.200000 0
7.000000 0.200000 0
7.100000 0.200000 0
7.200000 0.200000 0
7.300000 0.200000 0
7.400000 0.200000 0
7.500000 0.200000 0
7.600000 0.200000 0
7.700000 0.200000 0
7.800000 0.200000 0
7.900000 0.200000 0
8.000000 0.200000 0
8.100000 0.200000 0
8.200000 0.200000 0
8.300000 0.200000 0
8.400000 0.200000 0
8.500000 0.200000 0
8.600000 0.200000 0
8.700000 0.200000 0
8.800000 0.200000 0
8.900000 0.200000 0
9.000000 0.200000 0
9.100000 0.200000 0
9.200000 0.200000 0
9.300000 0.200000 0
9.400000 0.200000 0
9.500000 0.200000 0
9.600000 0.200000 0
9.700000 0.200000 0
9.800000 0.200000 0
9.900000 0.200000 0
10.000000 0.200000 0
0.000000 0.300000 0
0.100000 0.300000 0
0.200000 0.300000 0
0.300000 0.300000 0
0.400000 0.300000 0
0.500000 0.300000 0
0.600000 0.300000 0
0.700000 0.300000 0
0.800000 0.300000 0
0.900000 0.300000 0
1.000000 0.300000 0
1.100000 0.300000 0
1.200000 0.300000 0
1.300000 0.300000 0
1.400000 0.300000 0
1.500000 0.300000 0
1.600000 0.300000 0
1.700000 0.300000 0
1.800000 0.300000 0
1.900000 0.300000 0
2.000000 0.300000 0
2.100000 0.300000 0
2.200000 0.300000 0
2.300000 0.300000 0
2.400000 0.300000 0
2.500000 0.300000 0
2.600000 0.300000 0
2.700000 0.300000 0
2.800000 0.300000 0
2.900000 0.300000 0
3.000000 0.300000 0
3.100000 0.300000 0
3.200000 0.300000 0
3.300000 0.300000 0
3.400000 0.300000 0
3.500000 0.300000 0
3.600000 0.300000 0
3.700000 0.300000 0
3.800000 0.300000 0
3.900000 0.300000 0
4.000000 0.300000 0
4.100000 0.300000 0
4.200000 0.300000 0
4.300000 0.300000 0
4.400000 0.300000 0
4.500000 0.300000 0
4.600000 0.300000 0
4.700000 0.300000 0
4.800000 0.300000 0
4.900000 0.300000 0
5.000000 0.300000 0
5.100000 0.300000 0
5.200000 0.300000 0
5.300000 0.300000 0
5.400000 0.300000 0
5.500000 0.300000 0
5.600000 0.300000 0
5.700000 0.300000 0
5.800000 0.300000 0
5.900000 0.300000 0
6.000000 0.300000 0
6.100000 0.300000 0
6.200000 0.300000 0
6.300000 0.300000 0
6.400000 0.300000 0
6.500000 0.300000 0
6.600000 0.300000 0
6.700000 0.300000 0
6.800000 0.300000 0
6.900000 0.300000 0
7.000000 0.300000 0
7.100000 0.300000 0
7.200000 0.300000 0
7.300000 0.300000 0
7.400000 0.300000 0
7.500000 0.300000 0
7.600000 0.300000 0
7.700000 0.300000 0
7.800000 0.300000 0
7.900000 0.300000 0
8.000000 0.300000 0
8.100000 0.300000 0
8.200000 0.300000 0
8.300000 0.300000 0
8.400000 0.300000 0
8.500000 0.300000 0
8.600000 0.300000 0
8.700000 0.300000 0
8.800000 0.300000 0
8.900000 0.300000 0
9.000000 0.300000 0
9.100000 0.300000 0
9.200000 0.300000 0
9.300000 0.300000 0
9.400000 0.300000 0
9.500000 0.300000 0
9.600000 0.300000 0
9.700000 0.300000 0
9.800000 0.300000 0
9.900000 0.300000 0
10.000000 0.300000 0
0.000000 0.400000 0
0.100000 0.400000 0
0.200000 0.400000 0
0.300000 0.400000 0
0.400000 0.400000 0
0.500000 0.400000 0
0.600000 0.400000 0
0.700000 0.400000 0
0.800000 0.400000 0
0.900000 0.400000 0
1.000000 0.400000 0
1.100000 0.400000 0
1.200000 0.400000 0
1.300000 0.400000 0
1.400000 0.400000 0
1.500000 0.400000 0
1.600000 0.400000 0
1.700000 0.400000 0
1.800000 0.400000 0
1.900000 0.400000 0
2.000000 0.400000 0
2.100000 0.400000 0
2.200000 0.400000 0
2.300000 0.400000 0
2.400000 0.400000 0
2.500000 0.400000 0
2.600000 0.400000 0
2.700000 0.400000 0
2.800000 0.400000 0
2.900000 0.400000 0
3.000000 0.400000 0
3.100000 0.400000 0
3.200000 0.400000 0
3.300000 0.400000 0
3.400000 0.400000 0
3.500000 0.400000 0
3.600000 0.400000 0
3.700000 0.400000 0
3.800000 0.400000 0
3.900000 0.400000 0
4.000000 0.400000 0
4.100000 0.400000 0
4.200000 0.400000 0
4.300000 0.400000 0
4.400000 0.400000 0
4.500000 0.400000 0
4.600000 0.400000 0
4.700000 0.400000 0
4.800000 0.400000 0
4.900000 0.400000 0
5.000000 0.400000 0
5.100000 0.400000 0
5.200000 0.400000 0
5.300000 0.400000 0
5.400000 0.400000 0
5.500000 0.400000 0
5.600000 0.400000 0
5.700000 0.400000 0
5.800000 0.400000 0
5.900000 0.400000 0
6.000000 0.400000 0
6.100000 0.400000 0
6.200000 0.400000 0
6.300000 0.400000 0
6.400000 0.400000 0
6.500000 0.400000 0
6.600000 0.400000 0
6.700000 0.400000 0
6.800000 0.400000 0
6.900000 0.400000 0
7.000000 0.400000 0
7.100000 0.400000 0
7.200000 0.400000 0
7.300000 0.400000 0
7.400000 0.400000 0
7.500000 0.400000 0
7.600000 0.400000 0
7.700000 0.400000 0
7.800000 0.400000 0
7.900000 0.400000 0
8.000000 0.400000 0
8.100000 0.400000 0
8.200000 0.400000 0
8.300000 0.400000 0
8.400000 0.400000 0
8.500000 0.400000 0
8.600000 0.400000 0
[...]
POINT_DATA 2121 

VECTORS velocity float
0.500000 0.000000 0
0.000003 0.000000 0
0.000017 0.000000 0
0.000038 0.000000 0
0.000064 0.000000 0
0.000094 0.000000 0
0.000131 0.000000 0
0.000187 0.000000 0
0.000212 0.000000 0
0.000258 0.000000 0
0.000318 0.000000 0
0.000374 0.000000 0
0.000430 0.000000 0
0.000497 0.000000 0
0.000577 0.000000 0
0.000668 0.000000 0
0.000772 0.000000 0
0.000888 0.000000 0
0.001014 0.000000 0
0.001144 0.000000 0
0.001260 0.000000 0
0.001332 0.000000 0
0.001317 0.000000 0
0.001181 0.000000 0
0.000895 0.000000 0
0.000425 0.000000 0
-0.000177 0.000000 0
-0.000881 0.000000 0
-0.001730 0.000000 0
-0.002773 0.000000 0
-0.004045 0.000000 0
-0.005497 0.000000 0
-0.006891 0.000000 0
-0.007852 0.000000 0
-0.007627 0.000000 0
-0.005264 0.000000 0
-0.001653 0.000000 0
0.002112 0.000000 0
0.005146 0.000000 0
0.007329 0.000000 0
0.008616 0.000000 0
0.008529 0.000000 0
0.009927 0.000000 0
0.018768 0.000000 0
-0.000856 0.000000 0
0.006205 0.000000 0
0.018009 0.000000 0
0.013949 0.000000 0
0.003995 0.000000 0
-0.006108 0.000000 0
-0.014098 0.000000 0
-0.017923 0.000000 0
-0.016961 0.000000 0
-0.015896 0.000000 0
-0.018105 0.000000 0
-0.018042 0.000000 0
-0.016801 0.000000 0
-0.012588 0.000000 0
-0.006287 0.000000 0
0.002298 0.000000 0
0.012257 0.000000 0
0.020855 0.000000 0
0.021999 0.000000 0
0.013236 0.000000 0
0.019107 0.000000 0
0.017288 0.000000 0
0.008032 0.000000 0
-0.000737 0.000000 0
-0.005625 0.000000 0
-0.006461 0.000000 0
-0.005989 0.000000 0
-0.008774 0.000000 0
-0.010107 0.000000 0
-0.010388 0.000000 0
-0.009693 0.000000 0
-0.008247 0.000000 0
-0.006501 0.000000 0
-0.004717 0.000000 0
-0.003017 0.000000 0
-0.000889 0.000000 0
0.002428 0.000000 0
0.006430 0.000000 0
0.009669 0.000000 0
0.010520 0.000000 0
0.007585 0.000000 0
0.003966 0.000000 0
0.000357 0.000000 0
-0.004430 0.000000 0
-0.006984 0.000000 0
-0.006762 0.000000 0
-0.005614 0.000000 0
-0.003180 0.000000 0
-0.000445 0.000000 0
0.002085 0.000000 0
0.004263 0.000000 0
0.005978 0.000000 0
0.007128 0.000000 0
0.007851 0.000000 0
0.008617 0.000000 0
0.012515 0.000000 0
0.014474 0.000000 0
1.000000 0.000280 0
1.000094 0.000573 0
1.000374 0.000507 0
1.000890 0.000299 0
1.001701 -0.000010 0
1.002879 -0.000429 0
1.004515 -0.001012 0
1.006727 -0.001702 0
1.009636 -0.002514 0
1.013422 -0.003537 0
1.018317 -0.004836 0
1.024637 -0.006558 0
1.032791 -0.008775 0
1.043287 -0.011562 0
1.056750 -0.015030 0
1.073943 -0.019293 0
1.095748 -0.024402 0
1.123104 -0.030269 0
1.156838 -0.036537 0
1.197341 -0.042427 0
1.244048 -0.046597 0
1.294583 -0.047257 0
1.344518 -0.042511 0
1.386021 -0.032054 0
1.413413 -0.017795 0
1.424005 -0.002470 0
1.418920 0.011731 0
1.399937 0.023297 0
1.370275 0.030550 0
1.334928 0.031555 0
1.301274 0.024472 0
1.278916 0.008659 0
1.277841 -0.013971 0
1.305044 -0.038094 0
1.361164 -0.053713 0
1.429950 -0.050173 0
1.480889 -0.027499 0
1.497563 0.004317 0
1.477260 0.035457 0
1.428498 0.061338 0
1.359062 0.078801 0
1.276549 0.088198 0
1.184343 0.123044 0
1.088523 0.148404 0
1.001694 0.048171 0
0.814260 0.022258 0
0.627087 0.120869 0
0.521943 0.122693 0
0.470948 0.053149 0
0.464640 -0.029592 0
0.527795 -0.100618 0
0.663477 -0.135819 0
0.830503 -0.133759 0
0.982880 -0.131947 0
1.122698 -0.138158 0
1.253737 -0.133120 0
1.369219 -0.116841 0
1.462198 -0.085481 0
1.524503 -0.037088 0
1.544798 0.022644 0
1.509707 0.088696 0
1.414651 0.142840 0
1.279741 0.143002 0
1.120475 0.095436 0
0.931074 0.093457 0
0.799468 0.104708 0
0.742678 0.055316 0
0.747469 -0.008728 0
0.795175 -0.049140 0
0.866066 -0.059599 0
0.949184 -0.061450 0
1.031016 -0.071205 0
1.107120 -0.079500 0
1.181469 -0.077184 0
1.248677 -0.067907 0
1.303006 -0.054202 0
1.342440 -0.038921 0
1.366527 -0.024198 0
1.376710 -0.011085 0
1.378632 0.003798 0
1.368706 0.025823 0
1.338457 0.053252 0
1.284964 0.076461 0
1.214006 0.082762 0
1.154449 0.064535 0
1.135720 0.035459 0
1.117473 0.002577 0
1.120066 -0.038063 0
1.172865 -0.067728 0
1.244544 -0.075091 0
1.316306 -0.067236 0
1.378642 -0.048412 0
1.417616 -0.024295 0
1.434560 -0.000806 0
1.429329 0.020067 0
1.402308 0.036011 0
1.355220 0.044089 0
1.291233 0.043662 0
1.242138 0.042543 0
1.227384 0.034300 0
1.211290 0.026997 0
1.000000 -0.000113 0
1.000660 -0.000402 0
1.001723 -0.000814 0
1.003111 -0.001344 0
1.004829 -0.002006 0
1.006909 -0.002831 0
1.009405 -0.003865 0
1.012361 -0.005137 0
1.015960 -0.006711 0
1.020333 -0.008697 0
1.025720 -0.011230 0
1.032375 -0.014489 0
1.040636 -0.018664 0
1.050971 -0.023973 0
1.063993 -0.030670 0
1.080491 -0.039011 0
1.101444 -0.049174 0
1.128043 -0.061102 0
1.161604 -0.074249 0
1.203305 -0.087221 0
1.253740 -0.097253 0
1.311062 -0.100480 0
1.372139 -0.091447 0
1.422186 -0.068905 0
1.454038 -0.037993 0
1.464024 -0.005515 0
1.457132 0.024061 0
1.434435 0.048639 0
1.398523 0.065002 0
1.353282 0.068995 0
1.306180 0.056007 0
1.269386 0.023429 0
1.258198 -0.026132 0
1.286753 -0.083327 0
1.361484 -0.124910 0
1.461019 -0.119729 0
1.537347 -0.067616 0
1.567038 0.003627 0
1.548843 0.069063 0
1.496866 0.118196 0
1.425599 0.151947 0
1.336247 0.174717 0
1.234634 0.188025 0
1.162667 0.182648 0
1.067592 0.274262 0
0.826271 0.374607 0
0.677465 0.292317 0
0.619035 0.156139 0
0.582605 0.057303 0
0.554985 -0.056847 0
0.562712 -0.198836 0
0.634715 -0.302707 0
0.781782 -0.319401 0
0.946898 -0.292193 0
1.078042 -0.270855 0
1.192713 -0.246520 0
1.288260 -0.208460 0
1.361442 -0.155282 0
1.411758 -0.082598 0
1.436245 0.014799 0
1.427341 0.130150 0
1.387374 0.229969 0
1.312149 0.294179 0
1.171625 0.348670 0
0.989412 0.321011 0
0.888960 0.188400 0
0.858277 0.052003 0
0.867439 -0.052492 0
0.898687 -0.118593 0
0.943892 -0.154004 0
0.997964 -0.164945 0
1.052933 -0.157931 0
1.102555 -0.150447 0
1.150801 -0.141552 0
1.192257 -0.121531 0
1.221220 -0.093756 0
1.238191 -0.063515 0
1.239392 -0.034264 0
1.223334 -0.012098 0
1.216947 0.008012 0
1.218350 0.040182 0
1.209965 0.083749 0
1.191605 0.124458 0
1.170030 0.130523 0
1.109761 0.078294 0
0.985280 0.036985 0
0.898284 0.015662 0
0.888745 -0.055384 0
0.960955 -0.124469 0
1.065542 -0.143432 0
1.162298 -0.134090 0
1.232052 -0.101301 0
1.274069 -0.055909 0
1.303426 -0.011704 0
1.316812 0.032261 0
1.308688 0.074118 0
1.277914 0.111085 0
1.231211 0.113092 0
1.163351 0.063858 0
1.064396 0.030857 0
1.038817 0.034563 0
1.000000 -0.000393 0
1.000485 -0.001167 0
1.001364 -0.001952 0
1.002570 -0.002814 0
1.004089 -0.003815 0
1.005935 -0.005012 0
1.008147 -0.006470 0
1.010781 -0.008263 0
1.013942 -0.010493 0
1.017752 -0.013303 0
1.022386 -0.016884 0
1.028069 -0.021479 0
1.035105 -0.027376 0
1.043900 -0.034924 0
1.054999 -0.044556 0
1.069202 -0.056749 0
1.087560 -0.071959 0
1.111628 -0.090435 0
1.143454 -0.111803 0
1.185570 -0.134566 0
1.241007 -0.154357 0
1.308965 -0.165660 0
1.395380 -0.153639 0
1.460861 -0.113956 0
1.496623 -0.059636 0
1.506108 -0.005567 0
1.493654 0.041317 0
1.461896 0.081904 0
1.414136 0.111701 0
1.350539 0.123896 0
1.277907 0.108366 0
1.209640 0.056639 0
1.174230 -0.031339 0
1.198966 -0.141382 0
1.295429 -0.227979 0
1.445315 -0.226038 0
1.571585 -0.133520 0
1.631250 -0.007180 0
1.616100 0.105628 0
1.549404 0.184582 0
1.466001 0.239420 0
1.380297 0.279162 0
1.295379 0.296624 0
1.198987 0.315446 0
1.058322 0.384566 0
1.004455 0.412384 0
1.003075 0.328105 0
0.984389 0.217554 0
0.961778 0.117200 0
0.968433 -0.009699 0
0.979863 -0.180348 0
0.949977 -0.354888 0
0.923415 -0.445941 0
0.969227 -0.428206 0
1.049837 -0.383972 0
1.132324 -0.343338 0
1.206917 -0.285569 0
1.265504 -0.208977 0
1.303092 -0.111891 0
1.321026 0.007062 0
1.320805 0.137569 0
1.301567 0.258033 0
1.257017 0.358753 0
1.197141 0.418174 0
1.165093 0.376123 0
1.126254 0.235845 0
1.109506 0.076838 0
1.112085 -0.049137 0
1.137281 -0.125591 0
1.172696 -0.158874 0
1.196081 -0.170489 0
1.200509 -0.175793 0
1.189928 -0.177364 0
1.173583 -0.166884 0
1.159063 -0.138324 0
1.140228 -0.100133 0
1.127874 -0.057091 0
1.124961 -0.009338 0
1.097313 0.011364 0
1.034863 0.008785 0
0.990854 0.032807 0
0.986290 0.080000 0
1.004942 0.116399 0
1.015302 0.164609 0
0.976636 0.249289 0
0.899783 0.246939 0
0.873466 0.099117 0
0.846286 -0.100730 0
0.783041 -0.244522 0
0.783728 -0.276431 0
0.849655 -0.233742 0
0.931264 -0.160179 0
1.000168 -0.095665 0
1.041411 -0.043544 0
1.067325 0.014809 0
1.084355 0.074912 0
1.082212 0.121570 0
1.080542 0.158229 0
1.042313 0.209362 0
0.938447 0.158837 0
0.916404 0.076075 0
1.000000 -0.000611 0
1.000374 -0.001784 0
1.001087 -0.002906 0
1.002092 -0.004075 0
1.003373 -0.005378 0
1.004931 -0.006897 0
1.006788 -0.008717 0
1.008983 -0.010938 0
1.011578 -0.013689 0
1.014653 -0.017147 0
1.018324 -0.021553 0
1.022763 -0.027214 0
1.028216 -0.034501 0
1.034999 -0.043873 0
1.043470 -0.055978 0
1.054450 -0.071577 0
1.068809 -0.091605 0
1.088516 -0.117001 0
1.116223 -0.148195 0
1.156446 -0.184779 0
1.215346 -0.220653 0
1.297033 -0.254856 0
1.438453 -0.243346 0
1.525451 -0.170151 0
1.561221 -0.083243 0
1.566806 -0.002548 0
1.547254 0.068269 0
1.508176 0.128154 0
1.449934 0.176357 0
1.359873 0.205222 0
1.226073 0.196905 0
1.113838 0.127104 0
1.034874 -0.015460 0
1.011891 -0.204528 0
1.101086 -0.371261 0
1.289005 -0.395886 0
1.492039 -0.253551 0
1.625341 -0.040889 0
1.660348 0.150908 0
1.613317 0.268295 0
1.512839 0.321053 0
1.398676 0.345339 0
1.296222 0.369335 0
1.192933 0.419705 0
1.105494 0.468794 0
1.095476 0.429854 0
1.060910 0.312383 0
1.016995 0.197436 0
1.035833 0.073259 0
1.077083 -0.074932 0
1.112390 -0.180379 0
1.101422 -0.246258 0
1.046456 -0.338651 0
1.024372 -0.418614 0
1.047870 -0.433951 0
1.089619 -0.403599 0
1.137569 -0.341639 0
1.177386 -0.251455 0
1.200497 -0.138119 0
1.212736 -0.002914 0
1.210438 0.149611 0
1.191083 0.293758 0
1.161581 0.398606 0
1.127507 0.440596 0
1.097278 0.391899 0
1.078300 0.243989 0
1.110513 0.066174 0
1.121567 -0.080266 0
1.073095 -0.179201 0
1.045174 -0.212801 0
1.058510 -0.192757 0
1.078588 -0.151776 0
1.063588 -0.123519 0
1.022938 -0.110684 0
1.005287 -0.088173 0
1.011717 -0.062564 0
0.988878 -0.048245 0
0.926457 -0.003700 0
0.870143 0.078003 0
0.831099 0.114473 0
0.812862 0.088758 0
0.817168 0.069664 0
0.825301 0.095450 0
0.814654 0.158833 0
0.830775 0.193816 0
0.912036 0.140157 0
0.937261 0.069163 0
0.841940 0.035045 0
0.685387 -0.061908 0
0.592282 -0.210043 0
0.597841 -0.281622 0
0.663764 -0.251810 0
0.743502 -0.166052 0
0.810556 -0.078857 0
0.861325 -0.010678 0
0.904285 0.059235 0
0.940803 0.114902 0
0.929939 0.152995 0
0.893316 0.205957 0
0.910806 0.156770 0
0.914756 0.076282 0
1.000000 -0.000781 0
1.000277 -0.002272 0
1.000827 -0.003677 0
1.001623 -0.005107 0
1.002649 -0.006660 0
1.003885 -0.008434 0
1.005338 -0.010529 0
1.007022 -0.013059 0
1.008963 -0.016169 0
1.011185 -0.020055 0
1.013723 -0.025001 0
1.016678 -0.031378 0
1.020244 -0.039617 0
1.024664 -0.050184 0
1.029706 -0.064013 0
1.036607 -0.082093 0
1.045008 -0.106030 0
1.058097 -0.137853 0
1.076805 -0.179738 0
1.110008 -0.233694 0
1.160848 -0.294949 0
1.256060 -0.388771 0
1.517469 -0.382060 0
1.600965 -0.236728 0
1.609355 -0.100995 0
1.599575 0.008397 0
1.572905 0.099945 0
1.543008 0.179222 0
1.504339 0.260002 0
1.416844 0.347755 0
1.275763 0.354399 0
1.005662 0.247836 0
0.616878 0.070605 0
0.563956 -0.207596 0
0.567842 -0.505095 0
0.749347 -0.616992 0
1.116454 -0.469857 0
1.344679 -0.175490 0
1.460788 0.117652 0
1.528177 0.332090 0
1.510144 0.454060 0
1.422111 0.495778 0
1.295952 0.502367 0
1.173127 0.506174 0
1.114422 0.482023 0
1.088598 0.456967 0
1.020623 0.406586 0
0.931608 0.242632 0
0.819954 0.057112 0
0.753260 -0.086256 0
0.765632 -0.204685 0
0.855433 -0.288953 0
0.952615 -0.368891 0
1.009954 -0.429620 0
1.037728 -0.449218 0
1.065667 -0.433036 0
1.099910 -0.373335 0
1.126848 -0.271905 0
1.126452 -0.147240 0
1.142087 -0.002877 0
1.163998 0.159224 0
1.121714 0.306891 0
1.092333 0.422330 0
1.108799 0.482479 0
1.152709 0.425332 0
1.119038 0.222612 0
0.967246 0.033574 0
0.840182 -0.011716 0
0.759114 -0.049196 0
0.720388 -0.144287 0
0.716837 -0.203901 0
0.748081 -0.180868 0
0.790440 -0.121712 0
0.809583 -0.108580 0
0.802077 -0.127101 0
0.791392 -0.083721 0
0.770384 0.028172 0
0.732763 0.109400 0
0.710048 0.106725 0
0.704747 0.066069 0
0.697364 0.046741 0
0.708572 0.067564 0
0.749131 0.118917 0
0.808973 0.159139 0
0.859189 0.151910 0
0.831254 0.140457 0
0.689642 0.169217 0
0.529615 0.151147 0
0.436535 0.005140 0
0.391556 -0.188881 0
0.400205 -0.305221 0
0.448751 -0.305835 0
0.499219 -0.242453 0
0.541752 -0.161364 0
0.579865 -0.078916 0
0.621570 -0.004561 0
0.663787 0.095920 0
0.674294 0.205720 0
0.708139 0.228499 0
0.782898 0.137402 0
0.796285 0.067656 0
1.000000 -0.000902 0
1.000166 -0.002628 0
1.000537 -0.004260 0
1.001125 -0.005903 0
1.001903 -0.007646 0
1.002805 -0.009592 0
1.003835 -0.011861 0
1.004981 -0.014570 0
1.006241 -0.017857 0
1.007569 -0.021912 0
1.008873 -0.027052 0
1.010166 -0.033742 0
1.011636 -0.042493 0
1.013861 -0.053340 0
1.014372 -0.067926 0
1.017548 -0.086885 0
1.017263 -0.113100 0
1.025930 -0.148802 0
1.023966 -0.200110 0
1.046032 -0.268826 0
1.061977 -0.366709 0
1.172971 -0.611481 0
1.537664 -0.588255 0
1.479670 -0.262041 0
1.399266 -0.081855 0
1.377688 0.033899 0
1.339951 0.124833 0
1.327120 0.196718 0
1.405213 0.302519 0
1.325726 0.433796 0
1.236151 0.608085 0
1.096776 0.785987 0
0.821624 0.426245 0
0.331049 -0.155493 0
0.056696 -0.556654 0
0.083802 -0.944499 0
0.348664 -0.848884 0
0.828512 -0.385224 0
1.083997 -0.032591 0
1.221550 0.218938 0
1.307401 0.427118 0
1.349217 0.559531 0
1.320455 0.618319 0
1.258490 0.601234 0
1.189954 0.553324 0
1.087373 0.523654 0
1.008880 0.469372 0
0.873642 0.398105 0
0.721800 0.251608 0
0.674649 -0.020610 0
0.655975 -0.282552 0
0.673985 -0.433240 0
0.768172 -0.493171 0
0.890963 -0.503727 0
0.985312 -0.489664 0
1.031862 -0.465780 0
1.063276 -0.402819 0
1.105151 -0.277996 0
1.121651 -0.153357 0
1.055026 -0.040459 0
0.985661 0.169986 0
0.974776 0.365425 0
1.006753 0.411523 0
1.038278 0.380222 0
1.020175 0.381662 0
0.919051 0.429453 0
0.741751 0.345031 0
0.617620 0.127868 0
0.615088 -0.059405 0
0.641249 -0.170522 0
0.627186 -0.220447 0
0.610166 -0.225376 0
0.624132 -0.185019 0
0.643170 -0.122318 0
0.623400 -0.069979 0
0.579747 -0.030869 0
0.572024 0.010387 0
0.612559 0.056639 0
0.660737 0.106021 0
0.685486 0.127160 0
0.689367 0.084936 0
0.678744 0.017900 0
0.675890 -0.004947 0
0.706851 0.048778 0
0.727592 0.171538 0
0.662529 0.309708 0
0.538120 0.370806 0
0.446902 0.288156 0
0.384680 0.076156 0
0.327425 -0.173709 0
0.293426 -0.338814 0
0.327055 -0.350821 0
0.397561 -0.259049 0
0.436602 -0.159499 0
0.454100 -0.090493 0
0.460338 -0.024684 0
0.472094 0.062181 0
0.530984 0.108647 0
0.624873 0.097357 0
0.651825 0.068628 0
0.661561 0.049632 0
1.000000 -0.000960 0
1.000059 -0.002826 0
1.000261 -0.004643 0
1.000609 -0.006480 0
1.001142 -0.008347 0
1.001689 -0.010372 0
1.002318 -0.012712 0
1.002937 -0.015472 0
1.003569 -0.018763 0
1.004115 -0.022694 0
1.004254 -0.027603 0
1.004077 -0.034146 0
1.003586 -0.043318 0
1.003047 -0.052925 0
1.000346 -0.067705 0
1.000538 -0.084990 0
0.993538 -0.114418 0
0.994851 -0.144560 0
0.975211 -0.199844 0
0.982088 -0.271710 0
0.935520 -0.421892 0
1.047592 -0.864462 0
0.752918 -0.590430 0
0.002149 0.000000 0
0.003648 0.000000 0
0.577920 0.066725 0
0.627433 0.150510 0
0.505571 0.113958 0
0.863107 0.261395 0
0.974048 0.516814 0
1.011893 0.583347 0
0.860131 0.662362 0
0.709283 0.836331 0
0.296629 0.557330 0
0.104953 -0.257849 0
-0.016714 -0.908961 0
-0.072377 -1.214568 0
0.274555 -0.910824 0
0.690718 -0.275387 0
0.920006 0.108685 0
1.051168 0.326392 0
1.118714 0.482724 0
1.169049 0.593094 0
1.203910 0.636674 0
1.160635 0.653139 0
1.047255 0.638041 0
0.905660 0.620318 0
0.770507 0.529712 0
0.762274 0.256105 0
0.733215 -0.020431 0
0.615263 -0.204020 0
0.521393 -0.401149 0
0.522280 -0.585869 0
0.628529 -0.646760 0
0.794522 -0.590117 0
0.908288 -0.510999 0
0.950508 -0.446623 0
0.959692 -0.330279 0
0.940450 -0.097113 0
0.848257 0.133114 0
0.749091 0.239475 0
0.764868 0.285800 0
0.807239 0.358830 0
0.782900 0.469059 0
0.703399 0.544560 0
0.705255 0.501038 0
0.820101 0.335006 0
0.890483 0.114949 0
0.840028 -0.072823 0
0.706450 -0.156383 0
0.594668 -0.172816 0
0.521429 -0.177812 0
0.483089 -0.154714 0
0.467056 -0.107846 0
0.461678 -0.063675 0
0.455725 -0.032341 0
0.456317 -0.004637 0
0.481758 0.020689 0
0.543584 0.033801 0
0.637906 0.037442 0
0.712847 0.053487 0
0.715716 0.081044 0
0.666214 0.090813 0
0.602546 0.107440 0
0.535164 0.196234 0
0.489123 0.329932 0
0.503014 0.384847 0
0.594160 0.304590 0
0.712053 0.124621 0
0.693821 -0.097623 0
0.499528 -0.304847 0
0.342979 -0.409966 0
0.348242 -0.351996 0
0.385200 -0.217900 0
0.409255 -0.102648 0
0.415837 -0.022551 0
0.432565 0.025278 0
0.470442 0.052944 0
0.482649 0.107661 0
0.458850 0.100718 0
0.464107 0.049326 0
1.000000 -0.000975 0
0.999965 -0.002907 0
1.000062 -0.004817 0
1.000144 -0.006791 0
1.000479 -0.008732 0
1.000558 -0.010775 0
1.001041 -0.013115 0
1.000843 -0.015827 0
1.001154 -0.019042 0
1.000654 -0.022604 0
1.001302 -0.027019 0
0.998320 -0.033079 0
0.998369 -0.041468 0
0.993249 -0.050106 0
0.994441 -0.065423 0
0.981699 -0.080082 0
0.983516 -0.107418 0
0.953692 -0.130480 0
0.955398 -0.187352 0
0.890439 -0.229139 0
0.865177 -0.432217 0
0.670159 -0.527216 0
0.000000 -0.002686 0
-0.658613 0.198741 0
-0.585561 0.000000 0
0.000000 0.000000 0
0.072037 0.202493 0
0.150742 -0.038958 0
0.378948 -0.165960 0
0.751595 0.285008 0
0.546698 0.722001 0
0.281949 1.088596 0
-0.053960 0.989745 0
0.123046 0.448835 0
0.267125 -0.243313 0
0.216912 -0.767170 0
0.125265 -1.140154 0
0.040728 -1.148320 0
0.371118 -0.678042 0
0.653377 -0.141513 0
0.852781 0.228409 0
0.978327 0.441649 0
1.029798 0.533123 0
1.030867 0.609647 0
0.998826 0.709978 0
0.956652 0.778629 0
0.891439 0.746120 0
0.904871 0.541492 0
0.918695 0.288900 0
0.797341 0.126401 0
0.739175 -0.070730 0
0.760778 -0.340256 0
0.729433 -0.600306 0
0.640633 -0.775968 0
0.672410 -0.769422 0
0.798066 -0.621765 0
0.870059 -0.454222 0
0.838086 -0.267937 0
0.774513 -0.041921 0
0.760644 0.150901 0
0.781668 0.253376 0
0.794391 0.307278 0
0.756463 0.393492 0
0.684199 0.484064 0
0.693010 0.459309 0
0.789361 0.312752 0
0.879528 0.159805 0
0.900386 0.107944 0
0.826332 0.124631 0
0.694552 0.074839 0
0.577255 -0.035425 0
0.480694 -0.113794 0
0.418951 -0.130643 0
0.396137 -0.100906 0
0.393769 -0.058645 0
0.396788 -0.025504 0
0.406499 -0.015644 0
0.437555 -0.030626 0
0.494141 -0.050123 0
0.573017 -0.042100 0
0.667028 0.007128 0
0.756278 0.064537 0
0.788101 0.108226 0
0.725770 0.179831 0
0.633124 0.284965 0
0.601682 0.341861 0
0.647701 0.265772 0
0.767350 0.079121 0
0.928787 -0.023501 0
1.013343 0.038819 0
0.953975 0.012031 0
0.711952 -0.199531 0
0.417093 -0.301267 0
0.279607 -0.220509 0
0.245989 -0.121125 0
0.256442 -0.047989 0
0.276681 0.007579 0
0.294203 0.058566 0
0.300425 0.108953 0
0.347885 0.087175 0
0.360607 0.039494 0
1.000000 -0.000939 0
0.999911 -0.002906 0
0.999836 -0.004830 0
0.999972 -0.006904 0
0.999861 -0.008768 0
0.999912 -0.010941 0
0.999439 -0.013003 0
0.999897 -0.015591 0
0.999088 -0.018580 0
0.998268 -0.022849 0
0.996518 -0.025275 0
0.996807 -0.031218 0
0.992788 -0.038253 0
0.988928 -0.049003 0
0.983984 -0.056161 0
0.974211 -0.074070 0
0.965169 -0.086416 0
0.936518 -0.116447 0
0.921259 -0.136596 0
0.842272 -0.181494 0
0.807883 -0.201616 0
0.462426 -0.087235 0
0.343044 -0.008220 0
0.000000 0.000000 0
0.000000 0.000000 0
0.000000 0.000000 0
0.000000 0.000000 0
0.197414 -0.198034 0
-0.031958 -0.339461 0
0.127988 0.349062 0
0.048369 1.052992 0
-0.085102 1.263018 0
-0.066514 0.995232 0
0.259486 0.236244 0
0.410405 -0.351717 0
0.403881 -0.767103 0
0.352578 -1.038386 0
0.215750 -1.156677 0
0.276385 -0.888037 0
0.494490 -0.372978 0
0.695113 0.001442 0
0.848599 0.305707 0
0.950673 0.540553 0
0.985889 0.667645 0
1.001512 0.727355 0
1.013145 0.745429 0
1.049671 0.672099 0
1.059307 0.502456 0
0.927223 0.363635 0
0.873219 0.159089 0
0.953655 -0.167458 0
1.026177 -0.391406 0
1.050754 -0.465723 0
0.976907 -0.589736 0
0.805634 -0.747549 0
0.740775 -0.708647 0
0.803643 -0.486643 0
0.872239 -0.234732 0
0.922543 -0.019670 0
0.995115 0.125960 0
1.053310 0.205729 0