# vtk DataFile Version 2.0
generated by CFD-lab course output (written by Tobias Neckel) 
ASCII

DATASET STRUCTURED_GRID
DIMENSIONS  101 21 1 
POINTS 2121 float

0.000000 0.000000 0
0.100000 0.000000 0
0.200000 0.000000 0
0.300000 0.000000 0
0.400000 0.000000 0
0.500000 0.000000 0
0.600000 0.000000 0
0.700000 0.000000 0
0.800000 0.000000 0
0.900000 0.000000 0
1.000000 0.000000 0
1.100000 0.000000 0
1.200000 0.000000 0
1.300000 0.000000 0
1.400000 0.000000 0
1.500000 0.000000 0
1.600000 0.000000 0
1.700000 0.000000 0
1.800000 0.000000 0
1.900000 0.000000 0
2.000000 0.000000 0
2.100000 0.000000 0
2.200000 0.000000 0
2.300000 0.000000 0
2.400000 0.000000 0
2.500000 0.000000 0
2.600000 0.000000 0
2.700000 0.000000 0
2.800000 0.000000 0
2.900000 0.000000 0
3.000000 0.000000 0
3.100000 0.000000 0
3.200000 0.000000 0
3.300000 0.000000 0
3.400000 0.000000 0
3.500000 0.000000 0
3.600000 0.000000 0
3.700000 0.000000 0
3.800000 0.000000 0
3.900000 0.000000 0
4.000000 0.000000 0
4.100000 0.000000 0
4.200000 0.000000 0
4.300000 0.000000 0
4.400000 0.000000 0
4.500000 0.000000 0
4.600000 0.000000 0
4.700000 0.000000 0
4.800000 0.000000 0
4.900000 0.000000 0
5.000000 0.000000 0
5.100000 0.000000 0
5.200000 0.000000 0
5.300000 0.000000 0
5.400000 0.000000 0
5.500000 0.000000 0
5.600000 0.000000 0
5.700000 0.000000 0
5.800000 0.000000 0
5.900000 0.000000 0
6.000000 0.000000 0
6.100000 0.000000 0
6.200000 0.000000 0
6.300000 0.000000 0
6.400000 0.000000 0
6.500000 0.000000 0
6.600000 0.000000 0
6.700000 0.000000 0
6.800000 0.000000 0
6.900000 0.000000 0
7.000000 0.000000 0
7.100000 0.000000 0
7.200000 0.000000 0
7.300000 0.000000 0
7.400000 0.000000 0
7.500000 0.000000 0
7.600000 0.000000 0
7.700000 0.000000 0
7.800000 0.000000 0
7.900000 0.000000 0
8.000000 0.000000 0
8.100000 0.000000 0
8.200000 0.000000 0
8.300000 0.000000 0
8.400000 0.000000 0
8.500000 0.000000 0
8.600000 0.000000 0
8.700000 0.000000 0
8.800000 0.000000 0
8.900000 0.000000 0
9.000000 0.000000 0
9.100000 0.000000 0
9.200000 0.000000 0
9.300000 0.000000 0
9.400000 0.000000 0
9.500000 0.000000 0
9.600000 0.000000 0
9.700000 0.000000 0
9.800000 0.000000 0
9.900000 0.000000 0
10.000000 0.000000 0
0.000000 0.100000 0
0.100000 0.100000 0
0.200000 0.100000 0
0.300000 0.100000 0
0.400000 0.100000 0
0.500000 0.100000 0
0.600000 0.100000 0
0.700000 0.100000 0
0.800000 0.100000 0
0.900000 0.100000 0
1.000000 0.100000 0
1.100000 0.100000 0
1.200000 0.100000 0
1.300000 0.100000 0
1.400000 0.100000 0
1.500000 0.100000 0
1.600000 0.100000 0
1.700000 0.100000 0
1.800000 0.100000 0
1.900000 0.100000 0
2.000000 0.100000 0
2.100000 0.100000 0
2.200000 0.100000 0
2.300000 0.100000 0
2.400000 0.100000 0
2.500000 0.100000 0
2.600000 0.100000 0
2.700000 0.100000 0
2.800000 0.100000 0
2.900000 0.100000 0
3.000000 0.100000 0
3.100000 0.100000 0
3.200000 0.100000 0
3.300000 0.100000 0
3.400000 0.100000 0
3.500000 0.100000 0
3.600000 0.100000 0
3.700000 0.100000 0
3.800000 0.100000 0
3.900000 0.100000 0
4.000000 0.100000 0
4.100000 0.100000 0
4.200000 0.100000 0
4.300000 0.100000 0
4.400000 0.100000 0
4.500000 0.100000 0
4.600000 0.100000 0
4.700000 0.100000 0
4.800000 0.100000 0
4.900000 0.100000 0
5.000000 0.100000 0
5.100000 0.100000 0
5.200000 0.100000 0
5.300000 0.100000 0
5.400000 0.100000 0
5.500000 0.100000 0
5.600000 0.100000 0
5.700000 0.100000 0
5.800000 0.100000 0
5.900000 0.100000 0
6.000000 0.100000 0
6.100000 0.100000 0
6.200000 0.100000 0
6.300000 0.100000 0
6.400000 0.100000 0
6.500000 0.100000 0
6.600000 0.100000 0
6.700000 0.100000 0
6.800000 0.100000 0
6.900000 0.100000 0
7.000000 0.100000 0
7.100000 0.100000 0
7.200000 0.100000 0
7.300000 0.100000 0
7.400000 0.100000 0
7.500000 0.100000 0
7.600000 0.100000 0
7.700000 0.100000 0
7.800000 0.100000 0
7.900000 0.100000 0
8.000000 0.100000 0
8.100000 0.100000 0
8.200000 0.100000 0
8.300000 0.100000 0
8.400000 0.100000 0
8.500000 0.100000 0
8.600000 0.100000 0
8.700000 0.100000 0
8.800000 0.100000 0
8.900000 0.100000 0
9.000000 0.100000 0
9.100000 0.100000 0
9.200000 0.100000 0
9.300000 0.100000 0
9.400000 0.100000 0
9.500000 0.100000 0
9.600000 0.100000 0
9.700000 0.100000 0
9.800000 0.100000 0
9.900000 0.100000 0
10.000000 0.100000 0
0.000000 0.200000 0
0.100000 0.200000 0
0.200000 0.200000 0
0.300000 0.200000 0
0.400000 0.200000 0
0.500000 0.200000 0
0.600000 0.200000 0
0.700000 0.200000 0
0.800000 0.200000 0
0.900000 0.200000 0
1.000000 0.200000 0
1.100000 0.200000 0
1.200000 0.200000 0
1.300000 0.200000 0
1.400000 0.200000 0
1.500000 0.200000 0
1.600000 0.200000 0
1.700000 0.200000 0
1.800000 0.200000 0
1.900000 0.200000 0
2.000000 0.200000 0
2.100000 0.200000 0
2.200000 0.200000 0
2.300000 0.200000 0
2.400000 0.200000 0
2.500000 0.200000 0
2.600000 0.200000 0
2.700000 0.200000 0
2.800000 0.200000 0
2.900000 0.200000 0
3.000000 0.200000 0
3.100000 0.200000 0
3.200000 0.200000 0
3.300000 0.200000 0
3.400000 0.200000 0
3.500000 0.200000 0
3.600000 0.200000 0
3.700000 0.200000 0
3.800000 0.200000 0
3.900000 0.200000 0
4.000000 0.200000 0
4.100000 0.200000 0
4.200000 0.200000 0
4.300000 0.200000 0
4.400000 0.200000 0
4.500000 0.200000 0
4.600000 0.200000 0
4.700000 0.200000 0
4.800000 0.200000 0
4.900000 0.200000 0
5.000000 0.200000 0
5.100000 0.200000 0
5.200000 0.200000 0
5.300000 0.200000 0
5.400000 0.200000 0
5.500000 0.200000 0
5.600000 0.200000 0
5.700000 0.200000 0
5.800000 0.200000 0
5.900000 0.200000 0
6.000000 0.200000 0
6.100000 0.200000 0
6.200000 0.200000 0
6.300000 0.200000 0
6.400000 0.200000 0
6.500000 0.200000 0
6.600000 0.200000 0
6.700000 0.200000 0
6.800000 0.200000 0
6.900000 0.200000 0
7.000000 0.200000 0
7.100000 0.200000 0
7.200000 0.200000 0
7.300000 0.200000 0
7.400000 0.200000 0
7.500000 0.200000 0
7.600000 0.200000 0
7.700000 0.200000 0
7.800000 0.200000 0
7.900000 0.200000 0
8.000000 0.200000 0
8.100000 0.200000 0
8.200000 0.200000 0
8.300000 0.200000 0
8.400000 0.200000 0
8.500000 0.200000 0
8.600000 0.200000 0
8.700000 0.200000 0
8.800000 0.200000 0
8.900000 0.200000 0
9.000000 0.200000 0
9.100000 0.200000 0
9.200000 0.200000 0
9.300000 0.200000 0
9.400000 0.200000 0
9.500000 0.200000 0
9.600000 0.200000 0
9.700000 0.200000 0
9.800000 0.200000 0
9.900000 0.200000 0
10.000000 0.200000 0
0.000000 0.300000 0
0.100000 0.300000 0
0.200000 0.300000 0
0.300000 0.300000 0
0.400000 0.300000 0
0.500000 0.300000 0
0.600000 0.300000 0
0.700000 0.300000 0
0.800000 0.300000 0
0.900000 0.300000 0
1.000000 0.300000 0
1.100000 0.300000 0
1.200000 0.300000 0
1.300000 0.300000 0
1.400000 0.300000 0
1.500000 0.300000 0
1.600000 0.300000 0
1.700000 0.300000 0
1.800000 0.300000 0
1.900000 0.300000 0
2.000000 0.300000 0
2.100000 0.300000 0
2.200000 0.300000 0
2.300000 0.300000 0
2.400000 0.300000 0
2.500000 0.300000 0
2.600000 0.300000 0
2.700000 0.300000 0
2.800000 0.300000 0
2.900000 0.300000 0
3.000000 0.300000 0
3.100000 0.300000 0
3.200000 0.300000 0
3.300000 0.300000 0
3.400000 0.300000 0
3.500000 0.300000 0
3.600000 0.300000 0
3.700000 0.300000 0
3.800000 0.300000 0
3.900000 0.300000 0
4.000000 0.300000 0
4.100000 0.300000 0
4.200000 0.300000 0
4.300000 0.300000 0
4.400000 0.300000 0
4.500000 0.300000 0
4.600000 0.300000 0
4.700000 0.300000 0
4.800000 0.300000 0
4.900000 0.300000 0
5.000000 0.300000 0
5.100000 0.300000 0
5.200000 0.300000 0
5.300000 0.300000 0
5.400000 0.300000 0
5.500000 0.300000 0
5.600000 0.300000 0
5.700000 0.300000 0
5.800000 0.300000 0
5.900000 0.300000 0
6.000000 0.300000 0
6.100000 0.300000 0
6.200000 0.300000 0
6.300000 0.300000 0
6.400000 0.300000 0
6.500000 0.300000 0
6.600000 0.300000 0
6.700000 0.300000 0
6.800000 0.300000 0
6.900000 0.300000 0
7.000000 0.300000 0
7.100000 0.300000 0
7.200000 0.300000 0
7.300000 0.300000 0
7.400000 0.300000 0
7.500000 0.300000 0
7.600000 0.300000 0
7.700000 0.300000 0
7.800000 0.300000 0
7.900000 0.300000 0
8.000000 0.300000 0
8.100000 0.300000 0
8.200000 0.300000 0
8.300000 0.300000 0
8.400000 0.300000 0
8.500000 0.300000 0
8.600000 0.300000 0
8.700000 0.300000 0
8.800000 0.300000 0
8.900000 0.300000 0
9.000000 0.300000 0
9.100000 0.300000 0
9.200000 0.300000 0
9.300000 0.300000 0
9.400000 0.300000 0
9.500000 0.300000 0
9.600000 0.300000 0
9.700000 0.300000 0
9.800000 0.300000 0
9.900000 0.300000 0
10.000000 0.300000 0
0.000000 0.400000 0
0.100000 0.400000 0
0.200000 0.400000 0
0.300000 0.400000 0
0.400000 0.400000 0
0.500000 0.400000 0
0.600000 0.400000 0
0.700000 0.400000 0
0.800000 0.400000 0
0.900000 0.400000 0
1.000000 0.400000 0
1.100000 0.400000 0
1.200000 0.400000 0
1.300000 0.400000 0
1.400000 0.400000 0
1.500000 0.400000 0
1.600000 0.400000 0
1.700000 0.400000 0
1.800000 0.400000 0
1.900000 0.400000 0
2.000000 0.400000 0
2.100000 0.400000 0
2.200000 0.400000 0
2.300000 0.400000 0
2.400000 0.400000 0
2.500000 0.400000 0
2.600000 0.400000 0
2.700000 0.400000 0
2.800000 0.400000 0
2.900000 0.400000 0
3.000000 0.400000 0
3.100000 0.400000 0
3.200000 0.400000 0
3.300000 0.400000 0
3.400000 0.400000 0
3.500000 0.400000 0
3.600000 0.400000 0
3.700000 0.400000 0
3.800000 0.400000 0
3.900000 0.400000 0
4.000000 0.400000 0
4.100000 0.400000 0
4.200000 0.400000 0
4.300000 0.400000 0
4.400000 0.400000 0
4.500000 0.400000 0
4.600000 0.400000 0
4.700000 0.400000 0
4.800000 0.400000 0
4.900000 0.400000 0
5.000000 0.400000 0
5.100000 0.400000 0
5.200000 0.400000 0
5.300000 0.400000 0
5.400000 0.400000 0
5.500000 0.400000 0
5.600000 0.400000 0
5.700000 0.400000 0
5.800000 0.400000 0
5.900000 0.400000 0
6.000000 0.400000 0
6.100000 0.400000 0
6.200000 0.400000 0
6.300000 0.400000 0
6.400000 0.400000 0
6.500000 0.400000 0
6.600000 0.400000 0
6.700000 0.400000 0
6.800000 0.400000 0
6.900000 0.400000 0
7.000000 0.400000 0
7.100000 0.400000 0
7.200000 0.400000 0
7.300000 0.400000 0
7.400000 0.400000 0
7.500000 0.400000 0
7.600000 0.400000 0
7.700000 0.400000 0
7.800000 0.400000 0
7.900000 0.400000 0
8.000000 0.400000 0
8.100000 0.400000 0
8.200000 0.400000 0
8.300000 0.400000 0
8.400000 0.400000 0
8.500000 0.400000 0
8.600000 0.400000 0
[...]
POINT_DATA 2121 

VECTORS velocity float
0.500000 0.000000 0
0.000000 0.000000 0
0.000002 0.000000 0
0.000005 0.000000 0
0.000012 0.000000 0
0.000029 0.000000 0
0.000047 0.000000 0
0.000066 0.000000 0
0.000091 0.000000 0
0.000123 0.000000 0
0.000160 0.000000 0
0.000198 0.000000 0
0.000239 0.000000 0
0.000282 0.000000 0
0.000330 0.000000 0
0.000383 0.000000 0
0.000442 0.000000 0
0.000510 0.000000 0
0.000588 0.000000 0
0.000679 0.000000 0
0.000784 0.000000 0
0.000899 0.000000 0
0.001019 0.000000 0
0.001144 0.000000 0
0.001222 0.000000 0
0.001250 0.000000 0
0.001259 0.000000 0
0.001230 0.000000 0
0.001096 0.000000 0
0.000778 0.000000 0
0.000168 0.000000 0
-0.000884 0.000000 0
-0.002512 0.000000 0
-0.004709 0.000000 0
-0.007337 0.000000 0
-0.009594 0.000000 0
-0.010975 0.000000 0
-0.009343 0.000000 0
-0.004659 0.000000 0
0.000429 0.000000 0
0.004007 0.000000 0
0.006729 0.000000 0
0.008615 0.000000 0
0.009332 0.000000 0
0.008643 0.000000 0
0.009227 0.000000 0
0.015783 0.000000 0
0.009440 0.000000 0
0.000261 0.000000 0
-0.006819 0.000000 0
-0.010015 0.000000 0
-0.009471 0.000000 0
-0.009017 0.000000 0
-0.012485 0.000000 0
-0.013617 0.000000 0
-0.012676 0.000000 0
-0.010896 0.000000 0
-0.006603 0.000000 0
-0.001571 0.000000 0
0.003763 0.000000 0
0.008167 0.000000 0
0.011156 0.000000 0
0.012233 0.000000 0
0.011347 0.000000 0
0.008738 0.000000 0
0.004055 0.000000 0
-0.001715 0.000000 0
-0.002538 0.000000 0
-0.000390 0.000000 0
0.000829 0.000000 0
-0.001118 0.000000 0
-0.004558 0.000000 0
-0.006234 0.000000 0
-0.002086 0.000000 0
0.001797 0.000000 0
0.003520 0.000000 0
0.003896 0.000000 0
0.003614 0.000000 0
0.003226 0.000000 0
0.002924 0.000000 0
0.002755 0.000000 0
0.002621 0.000000 0
0.002575 0.000000 0
0.002215 0.000000 0
-0.000382 0.000000 0
0.008707 0.000000 0
0.016376 0.000000 0
0.007049 0.000000 0
0.000006 0.000000 0
0.000364 0.000000 0
0.001824 0.000000 0
0.000439 0.000000 0
0.000921 0.000000 0
0.003132 0.000000 0
0.005296 0.000000 0
0.007004 0.000000 0
0.008330 0.000000 0
0.008885 0.000000 0
0.008950 0.000000 0
0.007950 0.000000 0
0.007831 0.000000 0
1.000000 0.000268 0
1.000162 0.000505 0
1.000608 0.000315 0
1.001436 -0.000080 0
1.002730 -0.000672 0
1.004576 -0.001291 0
1.007023 -0.001917 0
1.010180 -0.002723 0
1.014191 -0.003705 0
1.019244 -0.004911 0
1.025593 -0.006426 0
1.033572 -0.008351 0
1.043617 -0.010794 0
1.056279 -0.013870 0
1.072237 -0.017699 0
1.092306 -0.022384 0
1.117416 -0.027969 0
1.148557 -0.034356 0
1.186607 -0.041181 0
1.232012 -0.047639 0
1.284239 -0.052314 0
1.340831 -0.053285 0
1.397384 -0.048217 0
1.445023 -0.036060 0
1.475357 -0.019081 0
1.486395 -0.000472 0
1.477638 0.017404 0
1.451872 0.033067 0
1.411459 0.045774 0
1.359561 0.054389 0
1.300640 0.057397 0
1.240893 0.053168 0
1.188168 0.040231 0
1.151166 0.016951 0
1.142682 -0.016981 0
1.176597 -0.056604 0
1.258432 -0.089198 0
1.374156 -0.094845 0
1.473076 -0.065939 0
1.525773 -0.020868 0
1.527331 0.020371 0
1.487498 0.053209 0
1.420552 0.077575 0
1.336594 0.089846 0
1.245299 0.092603 0
1.151127 0.112358 0
1.049188 0.140417 0
0.952446 0.110042 0
0.856819 0.036305 0
0.776512 -0.038139 0
0.803296 -0.084805 0
0.836641 -0.087815 0
0.895559 -0.088758 0
1.004125 -0.108241 0
1.132005 -0.122315 0
1.256248 -0.116091 0
1.368685 -0.097797 0
1.458130 -0.065631 0
1.517688 -0.023881 0
1.542776 0.020517 0
1.530075 0.060404 0
1.481532 0.089814 0
1.403921 0.104590 0
1.308554 0.101425 0
1.210386 0.079197 0
1.134439 0.037465 0
1.116207 -0.006006 0
1.148142 -0.021483 0
1.184568 -0.009665 0
1.199626 0.000931 0
1.179713 -0.008036 0
1.130503 -0.030489 0
1.099059 -0.038381 0
1.106021 -0.021213 0
1.123115 -0.001305 0
1.143898 0.006940 0
1.168728 0.006902 0
1.192349 0.005496 0
1.209272 0.006280 0
1.215499 0.009681 0
1.210005 0.014872 0
1.192654 0.021025 0
1.164559 0.027471 0
1.125740 0.027059 0
1.072501 0.011014 0
0.997068 0.096445 0
0.921109 0.182853 0
0.875948 0.102872 0
0.800630 0.008744 0
0.720814 -0.008986 0
0.667903 0.001291 0
0.649444 -0.004449 0
0.671567 -0.008698 0
0.674824 0.004119 0
0.648757 0.020157 0
0.608175 0.036275 0
0.556120 0.044902 0
0.517066 0.051454 0
0.460694 0.048210 0
0.432444 0.026977 0
0.417346 0.015762 0
1.000000 -0.000166 0
1.000743 -0.000614 0
1.001999 -0.001277 0
1.003712 -0.002126 0
1.005878 -0.003143 0
1.008469 -0.004296 0
1.011676 -0.005608 0
1.015545 -0.007171 0
1.020189 -0.009067 0
1.025780 -0.011405 0
1.032541 -0.014331 0
1.040769 -0.018029 0
1.050854 -0.022712 0
1.063303 -0.028625 0
1.078772 -0.036031 0
1.098085 -0.045183 0
1.122263 -0.056255 0
1.152551 -0.069194 0
1.190314 -0.083458 0
1.236857 -0.097634 0
1.292894 -0.108819 0
1.356417 -0.113145 0
1.425948 -0.104192 0
1.482016 -0.077972 0
1.517007 -0.041372 0
1.529862 -0.002281 0
1.522012 0.034524 0
1.494596 0.066179 0
1.451249 0.092310 0
1.393997 0.110817 0
1.326842 0.118665 0
1.256418 0.112468 0
1.191419 0.089722 0
1.135344 0.045480 0
1.106159 -0.025437 0
1.132828 -0.115756 0
1.224842 -0.197566 0
1.378776 -0.214651 0
1.515444 -0.151623 0
1.592970 -0.054261 0
1.603060 0.038269 0
1.561178 0.106774 0
1.490121 0.150900 0
1.403092 0.175250 0
1.302605 0.185466 0
1.188906 0.196111 0
1.096671 0.198682 0
1.092521 0.192370 0
1.103565 0.175936 0
0.994857 0.053526 0
0.755729 -0.060125 0
0.579878 -0.092258 0
0.558358 -0.167479 0
0.666032 -0.236441 0
0.838779 -0.252117 0
1.020291 -0.236673 0
1.154867 -0.201875 0
1.245317 -0.148997 0
1.319983 -0.084639 0
1.376142 -0.012380 0
1.409795 0.061252 0
1.416299 0.126162 0
1.392037 0.172985 0
1.339563 0.193543 0
1.262017 0.174124 0
1.159121 0.094188 0
1.038885 -0.013693 0
1.009609 -0.068351 0
1.044726 -0.051474 0
1.067008 0.004866 0
1.032850 0.069133 0
0.975953 0.080665 0
0.949931 0.024493 0
0.965356 -0.024046 0
0.998135 -0.037867 0
1.038360 -0.045604 0
1.088329 -0.048443 0
1.141106 -0.040537 0
1.186654 -0.023145 0
1.218277 -0.000729 0
1.236214 0.022847 0
1.238147 0.045446 0
1.219980 0.066913 0
1.170412 0.092055 0
1.097860 0.128666 0
1.033440 0.151385 0
1.039875 0.121110 0
0.964862 0.120467 0
0.881081 0.155120 0
0.856258 0.132711 0
0.862465 0.071353 0
0.828182 -0.003683 0
0.721639 -0.025400 0
0.621148 0.022789 0
0.540432 0.066626 0
0.497868 0.092613 0
0.445753 0.091085 0
0.408411 0.095401 0
0.401933 0.084597 0
0.387553 0.043323 0
0.374434 0.030045 0
1.000000 -0.000478 0
1.000544 -0.001498 0
1.001595 -0.002655 0
1.003096 -0.003960 0
1.005025 -0.005431 0
1.007395 -0.007091 0
1.010281 -0.008995 0
1.013745 -0.011238 0
1.017878 -0.013941 0
1.022812 -0.017265 0
1.028730 -0.021419 0
1.035881 -0.026666 0
1.044603 -0.033329 0
1.055357 -0.041791 0
1.068767 -0.052484 0
1.085648 -0.065878 0
1.107097 -0.082437 0
1.134725 -0.102409 0
1.170546 -0.125488 0
1.217407 -0.150219 0
1.278487 -0.171874 0
1.352462 -0.186340 0
1.448455 -0.173816 0
1.519850 -0.127118 0
1.560425 -0.066927 0
1.573357 -0.005478 0
1.563733 0.052669 0
1.533771 0.103830 0
1.483818 0.146372 0
1.415109 0.178793 0
1.332970 0.194975 0
1.245052 0.188589 0
1.156641 0.161302 0
1.064134 0.102208 0
0.985743 -0.014468 0
0.979228 -0.175289 0
1.072668 -0.335148 0
1.271773 -0.385450 0
1.469053 -0.280134 0
1.599066 -0.108485 0
1.643641 0.052162 0
1.612809 0.166148 0
1.533087 0.235662 0
1.436580 0.277362 0
1.332472 0.306790 0
1.225112 0.318293 0
1.129864 0.236805 0
1.014944 0.103150 0
0.901768 0.133971 0
0.775113 0.309700 0
0.548448 0.330176 0
0.412275 0.109559 0
0.380880 -0.174910 0
0.417086 -0.388659 0
0.536395 -0.476571 0
0.709881 -0.432176 0
0.879229 -0.322820 0
1.009577 -0.230744 0
1.093194 -0.154702 0
1.143475 -0.069292 0
1.184827 0.020250 0
1.223436 0.107575 0
1.243871 0.181330 0
1.238547 0.231449 0
1.213010 0.259643 0
1.161260 0.260601 0
1.006561 0.143511 0
0.824702 -0.027320 0
0.799064 -0.067060 0
0.855681 0.012811 0
0.911200 0.083023 0
0.942604 0.052435 0
0.910847 -0.027780 0
0.832845 -0.069414 0
0.775481 -0.074304 0
0.769887 -0.083250 0
0.810658 -0.095842 0
0.872580 -0.092828 0
0.937913 -0.070889 0
1.003715 -0.039879 0
1.072686 -0.004999 0
1.129014 0.037258 0
1.167803 0.095204 0
1.181427 0.149176 0
1.151725 0.147983 0
1.061805 0.154427 0
0.953474 0.251427 0
0.871376 0.261661 0
0.890480 0.117341 0
0.915692 0.009622 0
0.881140 0.029359 0
0.801900 0.136369 0
0.690093 0.198328 0
0.615130 0.185317 0
0.579166 0.143429 0
0.562979 0.130945 0
0.566705 0.134350 0
0.552639 0.095265 0
0.571847 0.069060 0
0.564363 0.054467 0
0.551637 0.042232 0
1.000000 -0.000713 0
1.000383 -0.002213 0
1.001275 -0.003831 0
1.002559 -0.005557 0
1.004211 -0.007444 0
1.006252 -0.009553 0
1.008722 -0.011959 0
1.011663 -0.014770 0
1.015132 -0.018136 0
1.019218 -0.022260 0
1.024050 -0.027402 0
1.029806 -0.033903 0
1.036750 -0.042190 0
1.045260 -0.052792 0
1.055893 -0.066325 0
1.069380 -0.083515 0
1.086648 -0.105334 0
1.109804 -0.132644 0
1.141003 -0.166141 0
1.185908 -0.205576 0
1.250303 -0.243874 0
1.336702 -0.283113 0
1.494139 -0.271579 0
1.586887 -0.189941 0
1.626416 -0.094879 0
1.633888 -0.005589 0
1.618192 0.074109 0
1.586957 0.146093 0
1.535850 0.210970 0
1.452006 0.261664 0
1.342776 0.288720 0
1.198350 0.288795 0
1.147962 0.270637 0
1.069113 0.216376 0
0.932047 0.059467 0
0.729660 -0.202683 0
0.708934 -0.490113 0
0.957848 -0.611038 0
1.240652 -0.478918 0
1.417408 -0.228850 0
1.546117 0.024526 0
1.595520 0.217328 0
1.557738 0.327129 0
1.463639 0.375867 0
1.354235 0.396935 0
1.260182 0.398720 0
1.167734 0.408852 0
0.958554 0.420469 0
0.678310 0.415769 0
0.544722 0.406849 0
0.587603 0.302716 0
0.700042 0.075313 0
0.751799 -0.172286 0
0.684440 -0.391952 0
0.599766 -0.544909 0
0.584814 -0.579505 0
0.660443 -0.501569 0
0.782753 -0.362958 0
0.886045 -0.218534 0
0.960347 -0.104010 0
1.014978 -0.018706 0
1.050480 0.067122 0
1.067075 0.157878 0
1.084148 0.224408 0
1.115022 0.251415 0
1.072505 0.300641 0
1.025755 0.322870 0
0.937468 0.139151 0
0.809981 -0.082448 0
0.731769 -0.107266 0
0.745908 -0.017786 0
0.761494 0.081022 0
0.695271 0.134255 0
0.582368 0.111324 0
0.492123 0.025094 0
0.454930 -0.080779 0
0.479631 -0.151134 0
0.541035 -0.167790 0
0.616718 -0.154279 0
0.691960 -0.135502 0
0.763116 -0.102451 0
0.829554 -0.049671 0
0.882427 0.014498 0
0.907244 0.108130 0
0.874849 0.248285 0
0.792256 0.349633 0
0.801334 0.311535 0
0.921409 0.183456 0
0.928307 0.110799 0
0.798832 0.142045 0
0.655142 0.185139 0
0.585409 0.187357 0
0.590866 0.161362 0
0.595104 0.133708 0
0.628397 0.118768 0
0.689875 0.105065 0
0.771278 0.101417 0
0.814396 0.090251 0
0.764522 0.072865 0
0.674582 0.063526 0
0.651574 0.056214 0
1.000000 -0.000864 0
1.000124 -0.002777 0
1.000970 -0.004832 0
1.002048 -0.006898 0
1.003381 -0.009126 0
1.005027 -0.011603 0
1.007012 -0.014407 0
1.009347 -0.017649 0
1.012042 -0.021498 0
1.015133 -0.026185 0
1.018689 -0.032009 0
1.022783 -0.039368 0
1.027575 -0.048786 0
1.033292 -0.060936 0
1.040434 -0.076606 0
1.049595 -0.096634 0
1.060610 -0.122862 0
1.077118 -0.156765 0
1.098293 -0.201593 0
1.136759 -0.259520 0
1.192495 -0.322668 0
1.292675 -0.430176 0
1.583956 -0.424002 0
1.664815 -0.259396 0
1.671765 -0.113928 0
1.663859 0.002746 0
1.643837 0.099599 0
1.620830 0.186172 0
1.605841 0.281321 0
1.537894 0.371866 0
1.403565 0.448629 0
1.242424 0.383400 0
0.977948 0.290537 0
0.712982 0.318122 0
0.626558 0.324984 0
0.404024 0.047822 0
0.379858 -0.563338 0
0.515954 -0.917170 0
0.818106 -0.739695 0
1.093870 -0.413950 0
1.251746 -0.125951 0
1.382849 0.154527 0
1.446498 0.367544 0
1.426621 0.480866 0
1.348798 0.510248 0
1.243220 0.504797 0
1.121208 0.538435 0
1.010714 0.592576 0
0.918052 0.547806 0
0.883017 0.400410 0
0.929432 0.174859 0
0.987225 -0.054634 0
1.047602 -0.159304 0
1.017744 -0.236623 0
0.865894 -0.376941 0
0.696523 -0.492850 0
0.607008 -0.520755 0
0.616431 -0.456342 0
0.694440 -0.332293 0
0.788192 -0.198222 0
0.859392 -0.069879 0
0.910559 0.055482 0
0.970551 0.147666 0
1.017607 0.183507 0
0.988514 0.271290 0
0.919208 0.349872 0
0.940588 0.278552 0
0.964199 0.188459 0
0.837556 0.138644 0
0.678331 0.076889 0
0.571588 0.053302 0
0.507756 0.103075 0
0.465325 0.151350 0
0.416797 0.133739 0
0.363714 0.053137 0
0.314684 -0.070755 0
0.306048 -0.181944 0
0.339516 -0.229914 0
0.404187 -0.221813 0
0.477961 -0.186275 0
0.539766 -0.142592 0
0.589692 -0.082054 0
0.625909 0.017512 0
0.646646 0.156752 0
0.700326 0.262968 0
0.823293 0.227939 0
0.902164 0.122270 0
0.849155 0.134683 0
0.717261 0.239913 0
0.624749 0.282782 0
0.627625 0.242775 0
0.681438 0.200639 0
0.730955 0.188626 0
0.757683 0.147778 0
0.769373 0.048650 0
0.754338 -0.011943 0
0.716786 0.009821 0
0.681934 0.102013 0
0.611818 0.208867 0
0.564975 0.167407 0
0.549083 0.087843 0
1.000000 -0.000840 0
0.999981 -0.003187 0
1.000475 -0.005756 0
1.001450 -0.007969 0
1.002475 -0.010425 0
1.003700 -0.013185 0
1.005166 -0.016280 0
1.006872 -0.019802 0
1.008741 -0.023924 0
1.010760 -0.028909 0
1.012968 -0.035055 0
1.015247 -0.042790 0
1.017672 -0.052702 0
1.020160 -0.065653 0
1.023287 -0.082630 0
1.028053 -0.103694 0
1.029908 -0.132858 0
1.039726 -0.170329 0
1.042105 -0.225783 0
1.071188 -0.299778 0
1.088607 -0.399790 0
1.235641 -0.674575 0
1.596966 -0.643719 0
1.517947 -0.277749 0
1.429292 -0.093923 0
1.405951 0.022338 0
1.388493 0.117137 0
1.388407 0.184088 0
1.494402 0.293906 0
1.498215 0.463938 0
1.459390 0.584189 0
1.328888 0.714411 0
0.999029 0.800078 0
0.804008 0.567765 0
0.519803 0.368424 0
0.476927 0.044015 0
0.534113 -0.602045 0
0.465055 -1.049288 0
0.524880 -1.056835 0
0.794268 -0.662490 0
0.991920 -0.264453 0
1.110790 0.022577 0
1.208110 0.283358 0
1.275578 0.473568 0
1.270719 0.580339 0
1.201521 0.626312 0
1.119436 0.641360 0
1.069749 0.623627 0
1.031418 0.543468 0
1.041535 0.395472 0
1.100586 0.198512 0
1.037470 -0.042854 0
0.870858 -0.202803 0
0.784925 -0.210240 0
0.727297 -0.223684 0
0.650668 -0.320616 0
0.582919 -0.421473 0
0.554736 -0.450386 0
0.580380 -0.390291 0
0.643454 -0.268958 0
0.720206 -0.141069 0
0.808490 -0.044033 0
0.894813 0.050835 0
0.930179 0.206449 0
0.887986 0.349818 0
0.895346 0.348572 0
0.900362 0.277884 0
0.855766 0.242187 0
0.819753 0.203424 0
0.779391 0.158706 0
0.694411 0.152794 0
0.578726 0.187289 0
0.454121 0.225218 0
0.339654 0.212939 0
0.263580 0.127211 0
0.217698 -0.023110 0
0.192390 -0.175964 0
0.200722 -0.265927 0
0.253587 -0.292722 0
0.337049 -0.271080 0
0.421636 -0.214182 0
0.495803 -0.135814 0
0.576589 -0.042457 0
0.672861 0.033711 0
0.768345 0.071636 0
0.802267 0.147791 0
0.700166 0.285669 0
0.549015 0.368355 0
0.501470 0.335199 0
0.551093 0.231676 0
0.628696 0.128444 0
0.708198 0.084020 0
0.796038 0.085111 0
0.879394 0.095284 0
0.900487 0.122106 0
0.832848 0.157645 0
0.734614 0.173814 0
0.648890 0.195212 0
0.641767 0.189817 0
0.702540 0.126255 0
0.706088 0.086679 0
1.000000 -0.000848 0
1.000137 -0.003255 0
0.999958 -0.006302 0
1.000748 -0.008900 0
1.001508 -0.011377 0
1.002316 -0.014295 0
1.003265 -0.017581 0
1.004389 -0.021226 0
1.005423 -0.025388 0
1.006329 -0.030414 0
1.007318 -0.036499 0
1.007753 -0.044075 0
1.007991 -0.053701 0
1.007921 -0.066554 0
1.005787 -0.084501 0
1.007028 -0.103257 0
1.000705 -0.134537 0
1.002316 -0.168963 0
0.988255 -0.233056 0
0.995434 -0.306023 0
0.966180 -0.487122 0
1.062739 -0.938535 0
0.775615 -0.614587 0
-0.000456 0.000000 0
0.000093 0.000000 0
0.575454 0.045476 0
0.618352 0.117143 0
0.518032 0.080261 0
0.945964 0.171512 0
1.138336 0.406877 0
1.155065 0.617954 0
1.143651 0.843759 0
1.091517 0.815416 0
0.979159 0.797347 0
0.570426 0.652063 0
0.639810 0.033511 0
0.698823 -0.551467 0
0.632487 -0.907937 0
0.529627 -1.068907 0
0.590722 -0.880990 0
0.805501 -0.442472 0
0.947274 -0.061662 0
1.026586 0.202757 0
1.084628 0.418259 0
1.139565 0.584307 0
1.168394 0.656083 0
1.141138 0.670210 0
1.039961 0.680597 0
0.998475 0.576024 0
1.033944 0.331245 0
0.940146 0.178927 0
0.747916 0.175097 0
0.551730 0.093245 0
0.462425 -0.093058 0
0.482457 -0.242682 0
0.514854 -0.348468 0
0.518387 -0.424819 0
0.512775 -0.453799 0
0.526965 -0.421006 0
0.579999 -0.338044 0
0.663313 -0.234910 0
0.742789 -0.119120 0
0.780008 0.025981 0
0.793616 0.190338 0
0.842460 0.306128 0
0.900279 0.337500 0
0.896228 0.318137 0
0.863021 0.269073 0
0.825785 0.215024 0
0.784462 0.202235 0
0.713132 0.253971 0
0.586064 0.343369 0
0.441833 0.390426 0
0.350396 0.324283 0
0.321180 0.175096 0
0.319639 0.000438 0
0.280262 -0.164965 0
0.230488 -0.291109 0
0.223131 -0.358139 0
0.268149 -0.354324 0
0.327817 -0.301345 0
0.381344 -0.237007 0
0.434650 -0.159548 0
0.482997 -0.035005 0
0.471722 0.133561 0
0.395605 0.296115 0
0.355574 0.375519 0
0.419321 0.333376 0
0.534501 0.237831 0
0.646504 0.155550 0
0.723366 0.085665 0
0.773548 0.033292 0
0.821960 0.017425 0
0.869376 0.043323 0
0.906212 0.095190 0
0.942706 0.153923 0
0.972867 0.193772 0
0.997137 0.194855 0
1.049063 0.155210 0
1.081517 0.103080 0
1.082177 0.080918 0
1.000000 -0.000980 0
1.000086 -0.003149 0
0.999973 -0.006368 0
1.000009 -0.009520 0
1.000461 -0.011995 0
1.000863 -0.014943 0
1.001292 -0.018356 0
1.002080 -0.021963 0
1.002351 -0.025867 0
1.001964 -0.030807 0
1.002645 -0.036482 0
1.000470 -0.043466 0
1.000695 -0.052872 0
0.996022 -0.063451 0
0.997749 -0.081740 0
0.984563 -0.098615 0
0.986423 -0.128148 0
0.958359 -0.157880 0
0.961941 -0.218902 0
0.890428 -0.277705 0
0.882184 -0.467096 0
0.631308 -0.575732 0
0.000000 -0.002202 0
-0.667901 0.246224 0
-0.589494 0.000000 0
0.000000 0.000000 0
0.049971 0.179055 0
0.106617 -0.143524 0
-0.070322 -0.326400 0
0.511556 0.254835 0
0.833015 0.578872 0
0.839627 0.777957 0
0.789707 0.964568 0
0.517598 1.088855 0
0.390443 0.707772 0
0.458972 -0.084382 0
0.532313 -0.594723 0
0.577289 -0.880092 0
0.566824 -1.015069 0
0.545180 -0.938363 0
0.649029 -0.621004 0
0.810439 -0.198507 0
0.935233 0.146006 0
1.009985 0.360591 0
1.060590 0.496575 0
1.056822 0.624742 0
0.998412 0.769797 0
0.964765 0.766293 0
1.046001 0.549489 0
0.891121 0.453804 0
0.566389 0.484544 0
0.404549 0.345566 0
0.442967 0.082691 0
0.497380 -0.140963 0
0.524815 -0.276109 0
0.536874 -0.356542 0
0.531081 -0.419390 0
0.519982 -0.458961 0
0.526006 -0.457511 0
0.559980 -0.405302 0
0.613040 -0.303855 0
0.665981 -0.160724 0
0.713598 0.000012 0
0.764411 0.144002 0
0.830209 0.243160 0
0.885963 0.294809 0
0.921313 0.315146 0
0.928967 0.312635 0
0.902508 0.281987 0
0.850189 0.271363 0
0.758644 0.351196 0
0.622651 0.458592 0
0.540257 0.460889 0
0.540561 0.333596 0
0.583581 0.157971 0
0.645810 0.017811 0
0.661515 -0.086810 0
0.579799 -0.208793 0
0.433696 -0.330381 0
0.344763 -0.375765 0
0.326420 -0.327376 0
0.311412 -0.242647 0
0.279977 -0.144110 0
0.244270 -0.003362 0
0.228396 0.159026 0
0.269974 0.263937 0
0.388167 0.261951 0
0.543583 0.189424 0
0.678231 0.108012 0
0.787574 0.042806 0
0.869555 0.001396 0
0.919145 -0.014578 0
0.946082 -0.010721 0
0.969192 0.011026 0
1.003809 0.048771 0
1.054549 0.090984 0
1.122208 0.119377 0
1.189676 0.119010 0
1.229663 0.105431 0
1.201140 0.093135 0
1.179854 0.089524 0
1.000000 -0.000937 0
0.999851 -0.003232 0
1.000006 -0.006226 0
0.999712 -0.009389 0
0.999639 -0.012233 0
0.999875 -0.015128 0
0.999586 -0.018800 0
1.000001 -0.022288 0
0.999522 -0.025276 0
0.999269 -0.030711 0
0.996935 -0.035007 0
0.996363 -0.042128 0
0.993615 -0.049256 0
0.990843 -0.063611 0
0.984163 -0.073044 0
0.975250 -0.091933 0
0.965670 -0.108335 0
0.939527 -0.144484 0
0.918794 -0.165126 0
0.845231 -0.226267 0
0.789862 -0.228004 0
0.469807 -0.136879 0
0.322258 -0.063807 0
0.000000 0.000000 0
0.000000 0.000000 0
0.000000 0.000000 0
0.000000 0.000000 0
0.164034 0.185533 0
-0.137226 -0.233428 0
-0.061202 -0.496462 0
0.417929 0.289882 0
0.442860 0.887066 0
0.431572 1.137444 0
0.224681 1.196610 0
0.358145 0.710689 0
0.459779 -0.108360 0
0.502335 -0.669784 0
0.545441 -0.942447 0
0.560118 -1.036797 0
0.572277 -0.963194 0
0.613931 -0.707731 0
0.711575 -0.347864 0
0.819943 0.003213 0
0.882601 0.292904 0
0.883028 0.537473 0
0.859189 0.718263 0
0.893100 0.762270 0
1.048857 0.633012 0
1.005173 0.649671 0
0.716740 0.810861 0
0.660479 0.665503 0
0.737657 0.298523 0
0.720781 0.000417 0
0.620210 -0.174901 0
0.551168 -0.282172 0
0.547783 -0.354730 0
0.560762 -0.407923 0
0.559832 -0.448721 0
0.556925 -0.461000 0
0.568836 -0.425074 0
0.595845 -0.340908 0
0.632206 -0.219674 0
0.682145 -0.072445 0
0.754350 0.073732 0
0.840460 0.184580 0