# vtk DataFile Version 2.0
generated by CFD-lab course output (written by Tobias Neckel) 
ASCII

DATASET STRUCTURED_GRID
DIMENSIONS  101 21 1 
POINTS 2121 float

0.000000 0.000000 0
0.100000 0.000000 0
0.200000 0.000000 0
0.300000 0.000000 0
0.400000 0.000000 0
0.500000 0.000000 0
0.600000 0.000000 0
0.700000 0.000000 0
0.800000 0.000000 0
0.900000 0.000000 0
1.000000 0.000000 0
1.100000 0.000000 0
1.200000 0.000000 0
1.300000 0.000000 0
1.400000 0.000000 0
1.500000 0.000000 0
1.600000 0.000000 0
1.700000 0.000000 0
1.800000 0.000000 0
1.900000 0.000000 0
2.000000 0.000000 0
2.100000 0.000000 0
2.200000 0.000000 0
2.300000 0.000000 0
2.400000 0.000000 0
2.500000 0.000000 0
2.600000 0.000000 0
2.700000 0.000000 0
2.800000 0.000000 0
2.900000 0.000000 0
3.000000 0.000000 0
3.100000 0.000000 0
3.200000 0.000000 0
3.300000 0.000000 0
3.400000 0.000000 0
3.500000 0.000000 0
3.600000 0.000000 0
3.700000 0.000000 0
3.800000 0.000000 0
3.900000 0.000000 0
4.000000 0.000000 0
4.100000 0.000000 0
4.200000 0.000000 0
4.300000 0.000000 0
4.400000 0.000000 0
4.500000 0.000000 0
4.600000 0.000000 0
4.700000 0.000000 0
4.800000 0.000000 0
4.900000 0.000000 0
5.000000 0.000000 0
5.100000 0.000000 0
5.200000 0.000000 0
5.300000 0.000000 0
5.400000 0.000000 0
5.500000 0.000000 0
5.600000 0.000000 0
5.700000 0.000000 0
5.800000 0.000000 0
5.900000 0.000000 0
6.000000 0.000000 0
6.100000 0.000000 0
6.200000 0.000000 0
6.300000 0.000000 0
6.400000 0.000000 0
6.500000 0.000000 0
6.600000 0.000000 0
6.700000 0.000000 0
6.800000 0.000000 0
6.900000 0.000000 0
7.000000 0.000000 0
7.100000 0.000000 0
7.200000 0.000000 0
7.300000 0.000000 0
7.400000 0.000000 0
7.500000 0.000000 0
7.600000 0.000000 0
7.700000 0.000000 0
7.800000 0.000000 0
7.900000 0.000000 0
8.000000 0.000000 0
8.100000 0.000000 0
8.200000 0.000000 0
8.300000 0.000000 0
8.400000 0.000000 0
8.500000 0.000000 0
8.600000 0.000000 0
8.700000 0.000000 0
8.800000 0.000000 0
8.900000 0.000000 0
9.000000 0.000000 0
9.100000 0.000000 0
9.200000 0.000000 0
9.300000 0.000000 0
9.400000 0.000000 0
9.500000 0.000000 0
9.600000 0.000000 0
9.700000 0.000000 0
9.800000 0.000000 0
9.900000 0.000000 0
10.000000 0.000000 0
0.000000 0.100000 0
0.100000 0.100000 0
0.200000 0.100000 0
0.300000 0.100000 0
0.400000 0.100000 0
0.500000 0.100000 0
0.600000 0.100000 0
0.700000 0.100000 0
0.800000 0.100000 0
0.900000 0.100000 0
1.000000 0.100000 0
1.100000 0.100000 0
1.200000 0.100000 0
1.300000 0.100000 0
1.400000 0.100000 0
1.500000 0.100000 0
1.600000 0.100000 0
1.700000 0.100000 0
1.800000 0.100000 0
1.900000 0.100000 0
2.000000 0.100000 0
2.100000 0.100000 0
2.200000 0.100000 0
2.300000 0.100000 0
2.400000 0.100000 0
2.500000 0.100000 0
2.600000 0.100000 0
2.700000 0.100000 0
2.800000 0.100000 0
2.900000 0.100000 0
3.000000 0.100000 0
3.100000 0.100000 0
3.200000 0.100000 0
3.300000 0.100000 0
3.400000 0.100000 0
3.500000 0.100000 0
3.600000 0.100000 0
3.700000 0.100000 0
3.800000 0.100000 0
3.900000 0.100000 0
4.000000 0.100000 0
4.100000 0.100000 0
4.200000 0.100000 0
4.300000 0.100000 0
4.400000 0.100000 0
4.500000 0.100000 0
4.600000 0.100000 0
4.700000 0.100000 0
4.800000 0.100000 0
4.900000 0.100000 0
5.000000 0.100000 0
5.100000 0.100000 0
5.200000 0.100000 0
5.300000 0.100000 0
5.400000 0.100000 0
5.500000 0.100000 0
5.600000 0.100000 0
5.700000 0.100000 0
5.800000 0.100000 0
5.900000 0.100000 0
6.000000 0.100000 0
6.100000 0.100000 0
6.200000 0.100000 0
6.300000 0.100000 0
6.400000 0.100000 0
6.500000 0.100000 0
6.600000 0.100000 0
6.700000 0.100000 0
6.800000 0.100000 0
6.900000 0.100000 0
7.000000 0.100000 0
7.100000 0.100000 0
7.200000 0.100000 0
7.300000 0.100000 0
7.400000 0.100000 0
7.500000 0.100000 0
7.600000 0.100000 0
7.700000 0.100000 0
7.800000 0.100000 0
7.900000 0.100000 0
8.000000 0.100000 0
8.100000 0.100000 0
8.200000 0.100000 0
8.300000 0.100000 0
8.400000 0.100000 0
8.500000 0.100000 0
8.600000 0.100000 0
8.700000 0.100000 0
8.800000 0.100000 0
8.900000 0.100000 0
9.000000 0.100000 0
9.100000 0.100000 0
9.200000 0.100000 0
9.300000 0.100000 0
9.400000 0.100000 0
9.500000 0.100000 0
9.600000 0.100000 0
9.700000 0.100000 0
9.800000 0.100000 0
9.900000 0.100000 0
10.000000 0.100000 0
0.000000 0.200000 0
0.100000 0.200000 0
0.200000 0.200000 0
0.300000 0.200000 0
0.400000 0.200000 0
0.500000 0.200000 0
0.600000 0.200000 0
0.700000 0.200000 0
0.800000 0.200000 0
0.900000 0.200000 0
1.000000 0.200000 0
1.100000 0.200000 0
1.200000 0.200000 0
1.300000 0.200000 0
1.400000 0.200000 0
1.500000 0.200000 0
1.600000 0.200000 0
1.700000 0.200000 0
1.800000 0.200000 0
1.900000 0.200000 0
2.000000 0.200000 0
2.100000 0.200000 0
2.200000 0.200000 0
2.300000 0.200000 0
2.400000 0.200000 0
2.500000 0.200000 0
2.600000 0.200000 0
2.700000 0.200000 0
2.800000 0.200000 0
2.900000 0.200000 0
3.000000 0.200000 0
3.100000 0.200000 0
3.200000 0.200000 0
3.300000 0.200000 0
3.400000 0.200000 0
3.500000 0.200000 0
3.600000 0.200000 0
3.700000 0.200000 0
3.800000 0.200000 0
3.900000 0.200000 0
4.000000 0.200000 0
4.100000 0.200000 0
4.200000 0.200000 0
4.300000 0.200000 0
4.400000 0.200000 0
4.500000 0.200000 0
4.600000 0.200000 0
4.700000 0.200000 0
4.800000 0.200000 0
4.900000 0.200000 0
5.000000 0.200000 0
5.100000 0.200000 0
5.200000 0.200000 0
5.300000 0.200000 0
5.400000 0.200000 0
5.500000 0.200000 0
5.600000 0.200000 0
5.700000 0.200000 0
5.800000 0.200000 0
5.900000 0.200000 0
6.000000 0.200000 0
6.100000 0.200000 0
6.200000 0.200000 0
6.300000 0.200000 0
6.400000 0.200000 0
6.500000 0.200000 0
6.600000 0.200000 0
6.700000 0.200000 0
6.800000 0.200000 0
6.900000 0.200000 0
7.000000 0.200000 0
7.100000 0.200000 0
7.200000 0.200000 0
7.300000 0.200000 0
7.400000 0.200000 0
7.500000 0.200000 0
7.600000 0.200000 0
7.700000 0.200000 0
7.800000 0.200000 0
7.900000 0.200000 0
8.000000 0.200000 0
8.100000 0.200000 0
8.200000 0.200000 0
8.300000 0.200000 0
8.400000 0.200000 0
8.500000 0.200000 0
8.600000 0.200000 0
8.700000 0.200000 0
8.800000 0.200000 0
8.900000 0.200000 0
9.000000 0.200000 0
9.100000 0.200000 0
9.200000 0.200000 0
9.300000 0.200000 0
9.400000 0.200000 0
9.500000 0.200000 0
9.600000 0.200000 0
9.700000 0.200000 0
9.800000 0.200000 0
9.900000 0.200000 0
10.000000 0.200000 0
0.000000 0.300000 0
0.100000 0.300000 0
0.200000 0.300000 0
0.300000 0.300000 0
0.400000 0.300000 0
0.500000 0.300000 0
0.600000 0.300000 0
0.700000 0.300000 0
0.800000 0.300000 0
0.900000 0.300000 0
1.000000 0.300000 0
1.100000 0.300000 0
1.200000 0.300000 0
1.300000 0.300000 0
1.400000 0.300000 0
1.500000 0.300000 0
1.600000 0.300000 0
1.700000 0.300000 0
1.800000 0.300000 0
1.900000 0.300000 0
2.000000 0.300000 0
2.100000 0.300000 0
2.200000 0.300000 0
2.300000 0.300000 0
2.400000 0.300000 0
2.500000 0.300000 0
2.600000 0.300000 0
2.700000 0.300000 0
2.800000 0.300000 0
2.900000 0.300000 0
3.000000 0.300000 0
3.100000 0.300000 0
3.200000 0.300000 0
3.300000 0.300000 0
3.400000 0.300000 0
3.500000 0.300000 0
3.600000 0.300000 0
3.700000 0.300000 0
3.800000 0.300000 0
3.900000 0.300000 0
4.000000 0.300000 0
4.100000 0.300000 0
4.200000 0.300000 0
4.300000 0.300000 0
4.400000 0.300000 0
4.500000 0.300000 0
4.600000 0.300000 0
4.700000 0.300000 0
4.800000 0.300000 0
4.900000 0.300000 0
5.000000 0.300000 0
5.100000 0.300000 0
5.200000 0.300000 0
5.300000 0.300000 0
5.400000 0.300000 0
5.500000 0.300000 0
5.600000 0.300000 0
5.700000 0.300000 0
5.800000 0.300000 0
5.900000 0.300000 0
6.000000 0.300000 0
6.100000 0.300000 0
6.200000 0.300000 0
6.300000 0.300000 0
6.400000 0.300000 0
6.500000 0.300000 0
6.600000 0.300000 0
6.700000 0.300000 0
6.800000 0.300000 0
6.900000 0.300000 0
7.000000 0.300000 0
7.100000 0.300000 0
7.200000 0.300000 0
7.300000 0.300000 0
7.400000 0.300000 0
7.500000 0.300000 0
7.600000 0.300000 0
7.700000 0.300000 0
7.800000 0.300000 0
7.900000 0.300000 0
8.000000 0.300000 0
8.100000 0.300000 0
8.200000 0.300000 0
8.300000 0.300000 0
8.400000 0.300000 0
8.500000 0.300000 0
8.600000 0.300000 0
8.700000 0.300000 0
8.800000 0.300000 0
8.900000 0.300000 0
9.000000 0.300000 0
9.100000 0.300000 0
9.200000 0.300000 0
9.300000 0.300000 0
9.400000 0.300000 0
9.500000 0.300000 0
9.600000 0.300000 0
9.700000 0.300000 0
9.800000 0.300000 0
9.900000 0.300000 0
10.000000 0.300000 0
0.000000 0.400000 0
0.100000 0.400000 0
0.200000 0.400000 0
0.300000 0.400000 0
0.400000 0.400000 0
0.500000 0.400000 0
0.600000 0.400000 0
0.700000 0.400000 0
0.800000 0.400000 0
0.900000 0.400000 0
1.000000 0.400000 0
1.100000 0.400000 0
1.200000 0.400000 0
1.300000 0.400000 0
1.400000 0.400000 0
1.500000 0.400000 0
1.600000 0.400000 0
1.700000 0.400000 0
1.800000 0.400000 0
1.900000 0.400000 0
2.000000 0.400000 0
2.100000 0.400000 0
2.200000 0.400000 0
2.300000 0.400000 0
2.400000 0.400000 0
2.500000 0.400000 0
2.600000 0.400000 0
2.700000 0.400000 0
2.800000 0.400000 0
2.900000 0.400000 0
3.000000 0.400000 0
3.100000 0.400000 0
3.200000 0.400000 0
3.300000 0.400000 0
3.400000 0.400000 0
3.500000 0.400000 0
3.600000 0.400000 0
3.700000 0.400000 0
3.800000 0.400000 0
3.900000 0.400000 0
4.000000 0.400000 0
4.100000 0.400000 0
4.200000 0.400000 0
4.300000 0.400000 0
4.400000 0.400000 0
4.500000 0.400000 0
4.600000 0.400000 0
4.700000 0.400000 0
4.800000 0.400000 0
4.900000 0.400000 0
5.000000 0.400000 0
5.100000 0.400000 0
5.200000 0.400000 0
5.300000 0.400000 0
5.400000 0.400000 0
5.500000 0.400000 0
5.600000 0.400000 0
5.700000 0.400000 0
5.800000 0.400000 0
5.900000 0.400000 0
6.000000 0.400000 0
6.100000 0.400000 0
6.200000 0.400000 0
6.300000 0.400000 0
6.400000 0.400000 0
6.500000 0.400000 0
6.600000 0.400000 0
6.700000 0.400000 0
6.800000 0.400000 0
6.900000 0.400000 0
7.000000 0.400000 0
7.100000 0.400000 0
7.200000 0.400000 0
7.300000 0.400000 0
7.400000 0.400000 0
7.500000 0.400000 0
7.600000 0.400000 0
7.700000 0.400000 0
7.800000 0.400000 0
7.900000 0.400000 0
8.000000 0.400000 0
8.100000 0.400000 0
8.200000 0.400000 0
8.300000 0.400000 0
8.400000 0.400000 0
8.500000 0.400000 0
8.600000 0.400000 0
[...]
POINT_DATA 2121 

VECTORS velocity float
0.500000 0.000000 0
-0.000003 0.000000 0
-0.000010 0.000000 0
-0.000021 0.000000 0
-0.000035 0.000000 0
-0.000052 0.000000 0
-0.000068 0.000000 0
-0.000082 0.000000 0
-0.000097 0.000000 0
-0.000114 0.000000 0
-0.000134 0.000000 0
-0.000161 0.000000 0
-0.000192 0.000000 0
-0.000229 0.000000 0
-0.000267 0.000000 0
-0.000304 0.000000 0
-0.000335 0.000000 0
-0.000355 0.000000 0
-0.000359 0.000000 0
-0.000337 0.000000 0
-0.000278 0.000000 0
-0.000173 0.000000 0
0.000045 0.000000 0
0.000405 0.000000 0
0.000885 0.000000 0
0.001531 0.000000 0
0.002378 0.000000 0
0.003400 0.000000 0
0.004483 0.000000 0
0.005216 0.000000 0
0.005490 0.000000 0
0.005562 0.000000 0
0.005409 0.000000 0
0.005031 0.000000 0
0.004443 0.000000 0
0.003697 0.000000 0
0.002747 0.000000 0
0.001884 0.000000 0
0.003557 0.000000 0
0.002441 0.000000 0
0.000290 0.000000 0
-0.000538 0.000000 0
-0.000984 0.000000 0
-0.001234 0.000000 0
-0.001306 0.000000 0
-0.001275 0.000000 0
-0.001203 0.000000 0
-0.001124 0.000000 0
-0.001051 0.000000 0
-0.000986 0.000000 0
-0.000929 0.000000 0
-0.000877 0.000000 0
-0.000830 0.000000 0
-0.000787 0.000000 0
-0.000744 0.000000 0
-0.000703 0.000000 0
-0.000663 0.000000 0
-0.000624 0.000000 0
-0.000587 0.000000 0
-0.000552 0.000000 0
-0.000520 0.000000 0
-0.000492 0.000000 0
-0.000465 0.000000 0
-0.000439 0.000000 0
-0.000417 0.000000 0
-0.000397 0.000000 0
-0.000376 0.000000 0
-0.000362 0.000000 0
-0.000350 0.000000 0
-0.000329 0.000000 0
-0.000310 0.000000 0
-0.000315 0.000000 0
-0.000314 0.000000 0
-0.000304 0.000000 0
-0.000293 0.000000 0
-0.000284 0.000000 0
-0.000277 0.000000 0
-0.000271 0.000000 0
-0.000265 0.000000 0
-0.000261 0.000000 0
-0.000258 0.000000 0
-0.000255 0.000000 0
-0.000253 0.000000 0
-0.000251 0.000000 0
-0.000250 0.000000 0
-0.000248 0.000000 0
-0.000247 0.000000 0
-0.000246 0.000000 0
-0.000246 0.000000 0
-0.000245 0.000000 0
-0.000245 0.000000 0
-0.000244 0.000000 0
-0.000244 0.000000 0
-0.000244 0.000000 0
-0.000243 0.000000 0
-0.000243 0.000000 0
-0.000243 0.000000 0
-0.000243 0.000000 0
-0.000243 0.000000 0
-0.000244 0.000000 0
-0.000245 0.000000 0
1.000000 0.000298 0
1.000079 0.000585 0
1.000419 0.000421 0
1.001144 0.000015 0
1.002384 -0.000678 0
1.004274 -0.001456 0
1.006893 -0.002226 0
1.010374 -0.003188 0
1.014891 -0.004365 0
1.020662 -0.005815 0
1.027973 -0.007617 0
1.037186 -0.009862 0
1.048760 -0.012654 0
1.063268 -0.016109 0
1.081410 -0.020344 0
1.104025 -0.025472 0
1.132086 -0.031559 0
1.166653 -0.038561 0
1.208746 -0.046203 0
1.259056 -0.053823 0
1.317490 -0.060147 0
1.382056 -0.063749 0
1.449739 -0.061369 0
1.510547 -0.051858 0
1.558101 -0.037968 0
1.589399 -0.021689 0
1.603336 -0.004009 0
1.599263 0.014705 0
1.576550 0.033305 0
1.535464 0.048883 0
1.479656 0.059911 0
1.414208 0.066901 0
1.343508 0.069942 0
1.272237 0.069030 0
1.204047 0.064513 0
1.141470 0.056799 0
1.086526 0.046366 0
1.041943 0.042972 0
1.003271 0.043376 0
0.958143 0.034378 0
0.927701 0.020185 0
0.915801 0.008857 0
0.911516 0.002176 0
0.912348 -0.001846 0
0.915884 -0.003987 0
0.920435 -0.004880 0
0.925251 -0.005085 0
0.930045 -0.004972 0
0.934708 -0.004745 0
0.939193 -0.004486 0
0.943481 -0.004216 0
0.947565 -0.003950 0
0.951428 -0.003699 0
0.955056 -0.003454 0
0.958442 -0.003204 0
0.961584 -0.002953 0
0.964478 -0.002708 0
0.967119 -0.002467 0
0.969512 -0.002230 0
0.971671 -0.002006 0
0.973611 -0.001800 0
0.975351 -0.001615 0
0.976898 -0.001445 0
0.978268 -0.001277 0
0.979489 -0.001134 0
0.980555 -0.001001 0
0.981478 -0.000857 0
0.982315 -0.000768 0
0.983051 -0.000702 0
0.983637 -0.000550 0
0.984134 -0.000395 0
0.984648 -0.000415 0
0.985118 -0.000476 0
0.985531 -0.000434 0
0.985883 -0.000368 0
0.986182 -0.000306 0
0.986436 -0.000254 0
0.986650 -0.000211 0
0.986830 -0.000174 0
0.986981 -0.000144 0
0.987107 -0.000119 0
0.987213 -0.000099 0
0.987301 -0.000084 0
0.987375 -0.000071 0
0.987438 -0.000060 0
0.987490 -0.000052 0
0.987535 -0.000045 0
0.987572 -0.000039 0
0.987605 -0.000035 0
0.987633 -0.000032 0
0.987658 -0.000030 0
0.987681 -0.000028 0
0.987704 -0.000029 0
0.987727 -0.000029 0
0.987752 -0.000035 0
0.987784 -0.000041 0
0.987825 -0.000066 0
0.987886 -0.000088 0
0.987976 -0.000208 0
0.988130 -0.000414 0
0.988351 -0.000497 0
1.000000 -0.000102 0
1.000663 -0.000451 0
1.001819 -0.001085 0
1.003443 -0.001985 0
1.005577 -0.003149 0
1.008180 -0.004528 0
1.011504 -0.006119 0
1.015642 -0.008015 0
1.020737 -0.010305 0
1.026979 -0.013098 0
1.034614 -0.016538 0
1.043954 -0.020800 0
1.055401 -0.026093 0
1.069473 -0.032660 0
1.086832 -0.040765 0
1.108312 -0.050683 0
1.134964 -0.062634 0
1.168065 -0.076664 0
1.209086 -0.092404 0
1.259524 -0.108744 0
1.320459 -0.122998 0
1.390500 -0.132246 0
1.468320 -0.128487 0
1.537362 -0.108355 0
1.589263 -0.078843 0
1.622583 -0.045226 0
1.638210 -0.009854 0
1.636229 0.026797 0
1.615569 0.063811 0
1.575071 0.096906 0
1.516475 0.121269 0
1.446267 0.136162 0
1.369767 0.141984 0
1.292367 0.139474 0
1.219151 0.130780 0
1.154216 0.117533 0
1.099848 0.099539 0
1.068750 0.083267 0
1.053949 0.083811 0
1.014998 0.075580 0
0.965394 0.042352 0
0.932867 0.016194 0
0.922759 0.003460 0
0.924596 -0.004361 0
0.929714 -0.008081 0
0.934783 -0.009362 0
0.939520 -0.009605 0
0.944089 -0.009454 0
0.948578 -0.009146 0
0.952993 -0.008772 0
0.957314 -0.008371 0
0.961503 -0.007946 0
0.965513 -0.007492 0
0.969302 -0.007016 0
0.972844 -0.006531 0
0.976124 -0.006039 0
0.979133 -0.005538 0
0.981872 -0.005038 0
0.984349 -0.004557 0
0.986580 -0.004105 0
0.988575 -0.003685 0
0.990354 -0.003294 0
0.991921 -0.002923 0
0.993307 -0.002598 0
0.994534 -0.002295 0
0.995594 -0.001996 0
0.996544 -0.001767 0
0.997396 -0.001581 0
0.998082 -0.001331 0
0.998653 -0.001091 0
0.999264 -0.001019 0
0.999876 -0.000993 0
1.000313 -0.000892 0
1.000671 -0.000774 0
1.000979 -0.000661 0
1.001247 -0.000562 0
1.001479 -0.000477 0
1.001679 -0.000404 0
1.001852 -0.000341 0
1.002001 -0.000287 0
1.002129 -0.000242 0
1.002237 -0.000204 0
1.002329 -0.000172 0
1.002408 -0.000146 0
1.002474 -0.000125 0
1.002530 -0.000107 0
1.002578 -0.000092 0
1.002619 -0.000080 0
1.002654 -0.000071 0
1.002684 -0.000064 0
1.002711 -0.000059 0
1.002735 -0.000056 0
1.002759 -0.000056 0
1.002781 -0.000059 0
1.002808 -0.000067 0
1.002834 -0.000083 0
1.002873 -0.000113 0
1.002905 -0.000161 0
1.002969 -0.000254 0
1.002952 -0.000385 0
1.002901 -0.000452 0
1.000000 -0.000381 0
1.000468 -0.001254 0
1.001414 -0.002368 0
1.002810 -0.003750 0
1.004686 -0.005421 0
1.007069 -0.007389 0
1.010066 -0.009694 0
1.013773 -0.012426 0
1.018314 -0.015708 0
1.023853 -0.019698 0
1.030599 -0.024595 0
1.038819 -0.030652 0
1.048858 -0.038176 0
1.061164 -0.047542 0
1.076344 -0.059185 0
1.095194 -0.073605 0
1.118830 -0.091312 0
1.148796 -0.112683 0
1.187131 -0.137661 0
1.236798 -0.165194 0
1.301123 -0.191121 0
1.379609 -0.211607 0
1.480964 -0.208228 0
1.565398 -0.172797 0
1.622129 -0.123184 0
1.656012 -0.070631 0
1.672987 -0.017650 0
1.674013 0.037351 0
1.654978 0.094468 0
1.611009 0.147982 0
1.545410 0.188720 0
1.467986 0.213614 0
1.384764 0.223848 0
1.300031 0.219652 0
1.220297 0.202669 0
1.150361 0.176107 0
1.090736 0.131836 0
1.025657 0.088874 0
0.946705 0.097132 0
0.895541 0.122937 0
0.873971 0.102319 0
0.875387 0.051495 0
0.892563 0.010449 0
0.912424 -0.008800 0
0.925513 -0.014172 0
0.932522 -0.014684 0
0.937563 -0.014391 0
0.942209 -0.014029 0
0.946870 -0.013649 0
0.951571 -0.013223 0
0.956232 -0.012727 0
0.960766 -0.012150 0
0.965103 -0.011499 0
0.969187 -0.010786 0
0.972970 -0.010028 0
0.976427 -0.009244 0
0.979561 -0.008458 0
0.982386 -0.007685 0
0.984923 -0.006941 0
0.987178 -0.006235 0
0.989178 -0.005576 0
0.990935 -0.004963 0
0.992483 -0.004401 0
0.993852 -0.003893 0
0.995027 -0.003424 0
0.996066 -0.003014 0
0.997004 -0.002663 0
0.997783 -0.002310 0
0.998417 -0.001963 0
0.999050 -0.001736 0
0.999698 -0.001622 0
1.000186 -0.001468 0
1.000582 -0.001274 0
1.000919 -0.001104 0
1.001211 -0.000948 0
1.001464 -0.000810 0
1.001683 -0.000691 0
1.001870 -0.000589 0
1.002032 -0.000500 0
1.002170 -0.000424 0
1.002288 -0.000359 0
1.002389 -0.000304 0
1.002474 -0.000258 0
1.002547 -0.000219 0
1.002609 -0.000187 0
1.002662 -0.000160 0
1.002706 -0.000138 0
1.002744 -0.000119 0
1.002777 -0.000105 0
1.002805 -0.000093 0
1.002829 -0.000085 0
1.002850 -0.000080 0
1.002870 -0.000079 0
1.002889 -0.000083 0
1.002908 -0.000092 0
1.002926 -0.000111 0
1.002946 -0.000141 0
1.002962 -0.000188 0
1.002972 -0.000259 0
1.002948 -0.000350 0
1.002893 -0.000400 0
1.000000 -0.000585 0
1.000315 -0.001884 0
1.001078 -0.003435 0
1.002232 -0.005264 0
1.003827 -0.007415 0
1.005890 -0.009915 0
1.008462 -0.012829 0
1.011610 -0.016268 0
1.015431 -0.020389 0
1.020062 -0.025388 0
1.025670 -0.031509 0
1.032459 -0.039063 0
1.040676 -0.048441 0
1.050658 -0.060148 0
1.062910 -0.074797 0
1.078064 -0.093171 0
1.097207 -0.116236 0
1.122074 -0.144964 0
1.154775 -0.180406 0
1.201094 -0.222734 0
1.266686 -0.265807 0
1.351162 -0.312084 0
1.512318 -0.314273 0
1.617706 -0.249516 0
1.670914 -0.169453 0
1.697097 -0.096080 0
1.713045 -0.027850 0
1.722664 0.044812 0
1.716363 0.126821 0
1.669972 0.206479 0
1.585429 0.264297 0
1.477984 0.296813 0
1.366894 0.309943 0
1.267697 0.303947 0
1.184467 0.280455 0
1.113518 0.247098 0
1.064707 0.224247 0
1.030591 0.227302 0
0.986046 0.213931 0
0.970531 0.148317 0
0.978290 0.062509 0
0.978385 -0.002395 0
0.963685 -0.033575 0
0.944490 -0.037309 0
0.933564 -0.028176 0
0.931746 -0.021410 0
0.934248 -0.019292 0
0.938604 -0.018761 0
0.943735 -0.018507 0
0.949137 -0.018134 0
0.954530 -0.017566 0
0.959738 -0.016819 0
0.964643 -0.015915 0
0.969172 -0.014883 0
0.973292 -0.013772 0
0.976998 -0.012632 0
0.980302 -0.011499 0
0.983225 -0.010402 0
0.985794 -0.009351 0
0.988050 -0.008363 0
0.990020 -0.007446 0
0.991736 -0.006601 0
0.993243 -0.005843 0
0.994540 -0.005145 0
0.995663 -0.004512 0
0.996669 -0.003977 0
0.997518 -0.003487 0
0.998202 -0.002998 0
0.998845 -0.002602 0
0.999515 -0.002375 0
1.000064 -0.002158 0
1.000481 -0.001882 0
1.000840 -0.001629 0
1.001144 -0.001407 0
1.001406 -0.001210 0
1.001631 -0.001038 0
1.001826 -0.000887 0
1.001992 -0.000757 0
1.002134 -0.000644 0
1.002256 -0.000547 0
1.002360 -0.000465 0
1.002449 -0.000395 0
1.002525 -0.000335 0
1.002590 -0.000285 0
1.002645 -0.000243 0
1.002691 -0.000208 0
1.002731 -0.000179 0
1.002764 -0.000155 0
1.002793 -0.000135 0
1.002817 -0.000120 0
1.002838 -0.000109 0
1.002855 -0.000101 0
1.002871 -0.000098 0
1.002884 -0.000101 0
1.002896 -0.000109 0
1.002905 -0.000126 0
1.002911 -0.000153 0
1.002911 -0.000192 0
1.002900 -0.000245 0
1.002869 -0.000311 0
1.002813 -0.000346 0
1.000000 -0.000711 0
1.000095 -0.002351 0
1.000746 -0.004291 0
1.001597 -0.006506 0
1.002877 -0.009086 0
1.004588 -0.012030 0
1.006689 -0.015419 0
1.009189 -0.019400 0
1.012161 -0.024165 0
1.015717 -0.029941 0
1.019978 -0.036996 0
1.025070 -0.045661 0
1.031104 -0.056378 0
1.038214 -0.069778 0
1.046854 -0.086594 0
1.057172 -0.107904 0
1.070078 -0.135322 0
1.087555 -0.170251 0
1.109006 -0.216681 0
1.147805 -0.277104 0
1.202894 -0.341187 0
1.296073 -0.457236 0
1.581316 -0.474769 0
1.669302 -0.331389 0
1.677155 -0.202571 0
1.671384 -0.112758 0
1.677655 -0.043212 0
1.702075 0.034038 0
1.749254 0.147165 0
1.738617 0.278920 0
1.669991 0.380713 0
1.552501 0.432154 0
1.409994 0.434140 0
1.269160 0.402084 0
1.133861 0.356853 0
1.017237 0.295871 0
0.989421 0.214767 0
0.977020 0.167539 0
0.970004 0.157195 0
0.975586 0.130696 0
0.976785 0.094468 0
0.965096 0.066102 0
0.946455 0.044346 0
0.928570 0.021323 0
0.920371 -0.001426 0
0.921112 -0.015367 0
0.925778 -0.021248 0
0.932020 -0.023516 0
0.938828 -0.024181 0
0.945704 -0.024017 0
0.952360 -0.023328 0
0.958608 -0.022264 0
0.964332 -0.020934 0
0.969474 -0.019436 0
0.974024 -0.017855 0
0.978005 -0.016255 0
0.981466 -0.014687 0
0.984470 -0.013179 0
0.987060 -0.011768 0
0.989278 -0.010464 0
0.991191 -0.009265 0
0.992843 -0.008189 0
0.994246 -0.007209 0
0.995449 -0.006315 0
0.996523 -0.005556 0
0.997426 -0.004873 0
0.998128 -0.004199 0
0.998802 -0.003640 0
0.999487 -0.003279 0
1.000073 -0.002959 0
1.000499 -0.002592 0
1.000856 -0.002247 0
1.001161 -0.001941 0
1.001422 -0.001673 0
1.001644 -0.001439 0
1.001835 -0.001234 0
1.001998 -0.001056 0
1.002137 -0.000901 0
1.002257 -0.000768 0
1.002359 -0.000654 0
1.002447 -0.000556 0
1.002522 -0.000473 0
1.002586 -0.000403 0
1.002641 -0.000343 0
1.002688 -0.000293 0
1.002728 -0.000250 0
1.002761 -0.000215 0
1.002789 -0.000186 0
1.002813 -0.000162 0
1.002833 -0.000142 0
1.002849 -0.000128 0
1.002862 -0.000118 0
1.002873 -0.000112 0
1.002880 -0.000112 0
1.002885 -0.000118 0
1.002886 -0.000131 0
1.002883 -0.000152 0
1.002871 -0.000182 0
1.002849 -0.000220 0
1.002811 -0.000267 0
1.002755 -0.000293 0
1.000000 -0.000695 0
0.999941 -0.002648 0
1.000417 -0.004943 0
1.000983 -0.007402 0
1.001904 -0.010412 0
1.003168 -0.013733 0
1.004732 -0.017435 0
1.006529 -0.021745 0
1.008587 -0.026921 0
1.010990 -0.033209 0
1.013807 -0.040866 0
1.017087 -0.050191 0
1.020777 -0.061588 0
1.024515 -0.075900 0
1.029320 -0.093756 0
1.033964 -0.116396 0
1.039063 -0.146619 0
1.048246 -0.183892 0
1.049472 -0.240655 0
1.077665 -0.316621 0
1.095345 -0.414073 0
1.232829 -0.690503 0
1.574476 -0.687500 0
1.476640 -0.345352 0
1.348691 -0.171530 0
1.283294 -0.096576 0
1.263317 -0.058536 0
1.306558 -0.026781 0
1.482976 0.090284 0
1.564627 0.285747 0
1.576031 0.450419 0
1.528858 0.556814 0
1.432158 0.593289 0
1.291325 0.580084 0
1.139397 0.532381 0
1.025948 0.391542 0
0.882070 0.264468 0
0.751870 0.246723 0
0.717920 0.215369 0
0.749898 0.141538 0
0.794014 0.073001 0
0.829776 0.027938 0
0.856889 0.002954 0
0.878764 -0.011223 0
0.893598 -0.020717 0
0.903897 -0.026816 0
0.913440 -0.030199 0
0.923083 -0.031810 0
0.932649 -0.032191 0
0.941790 -0.031666 0
0.950241 -0.030470 0
0.957864 -0.028791 0
0.964609 -0.026782 0
0.970468 -0.024577 0
0.975472 -0.022305 0
0.979693 -0.020075 0
0.983251 -0.017966 0
0.986261 -0.015998 0
0.988813 -0.014161 0
0.990953 -0.012496 0
0.992730 -0.011013 0
0.994239 -0.009659 0
0.995543 -0.008452 0
0.996627 -0.007425 0
0.997513 -0.006492 0
0.998308 -0.005585 0
0.998990 -0.004868 0
0.999679 -0.004361 0
1.000252 -0.003876 0
1.000666 -0.003390 0
1.001002 -0.002944 0
1.001287 -0.002548 0
1.001530 -0.002199 0
1.001737 -0.001894 0
1.001913 -0.001627 0
1.002063 -0.001395 0
1.002191 -0.001194 0
1.002301 -0.001020 0
1.002395 -0.000870 0
1.002476 -0.000742 0
1.002546 -0.000632 0
1.002606 -0.000538 0
1.002657 -0.000459 0
1.002701 -0.000391 0
1.002738 -0.000334 0
1.002770 -0.000286 0
1.002797 -0.000245 0
1.002819 -0.000211 0
1.002837 -0.000183 0
1.002852 -0.000160 0
1.002863 -0.000142 0
1.002872 -0.000129 0
1.002877 -0.000121 0
1.002880 -0.000117 0
1.002879 -0.000119 0
1.002873 -0.000127 0
1.002861 -0.000142 0
1.002842 -0.000162 0
1.002813 -0.000189 0
1.002771 -0.000221 0
1.002715 -0.000239 0
1.000000 -0.000665 0
0.999990 -0.002785 0
0.999969 -0.005340 0
1.000325 -0.007999 0
1.001041 -0.011276 0
1.001769 -0.014864 0
1.002695 -0.018785 0
1.003721 -0.023260 0
1.004822 -0.028630 0
1.006052 -0.035164 0
1.007418 -0.043097 0
1.008954 -0.052635 0
1.010641 -0.063808 0
1.010093 -0.078323 0
1.012191 -0.096044 0
1.012454 -0.117647 0
1.008390 -0.149604 0
1.005041 -0.180660 0
0.995008 -0.246100 0
0.993840 -0.322976 0
0.971221 -0.496349 0
1.068756 -0.936366 0
0.760418 -0.612978 0
-0.001631 0.000000 0
-0.003378 0.000000 0
0.470486 -0.018159 0
0.417318 -0.066471 0
0.463689 -0.185616 0
0.779827 -0.110899 0
1.040654 0.185870 0
1.195747 0.416487 0
1.238081 0.576032 0
1.207499 0.671678 0
1.150203 0.694849 0
1.099185 0.622234 0
0.987938 0.553203 0
0.805062 0.488849 0
0.732022 0.331692 0
0.763781 0.159170 0
0.805233 0.054605 0
0.827170 0.014593 0
0.836855 0.003229 0
0.844508 -0.004640 0
0.855087 -0.015384 0
0.868301 -0.026558 0
0.882812 -0.035207 0
0.897790 -0.040433 0
0.912414 -0.042725 0
0.926061 -0.042887 0
0.938359 -0.041609 0
0.949110 -0.039404 0
0.958329 -0.036633 0
0.966135 -0.033538 0
0.972669 -0.030301 0
0.978036 -0.027081 0
0.982379 -0.024036 0
0.985896 -0.021257 0
0.988746 -0.018743 0
0.991148 -0.016461 0
0.993148 -0.014384 0
0.994675 -0.012554 0
0.995944 -0.011005 0
0.997120 -0.009599 0
0.998011 -0.008289 0
0.998782 -0.007239 0
0.999488 -0.006353 0
1.000139 -0.005574 0
1.000645 -0.004905 0
1.001014 -0.004270 0
1.001308 -0.003713 0
1.001553 -0.003216 0
1.001759 -0.002779 0
1.001932 -0.002395 0
1.002079 -0.002060 0
1.002203 -0.001769 0
1.002309 -0.001516 0
1.002400 -0.001298 0
1.002479 -0.001110 0
1.002546 -0.000948 0
1.002604 -0.000809 0
1.002655 -0.000690 0
1.002698 -0.000589 0
1.002736 -0.000502 0
1.002768 -0.000428 0
1.002795 -0.000366 0
1.002818 -0.000313 0
1.002837 -0.000268 0
1.002852 -0.000230 0
1.002865 -0.000199 0
1.002874 -0.000173 0
1.002881 -0.000152 0
1.002885 -0.000136 0
1.002885 -0.000124 0
1.002883 -0.000117 0
1.002877 -0.000115 0
1.002865 -0.000118 0
1.002848 -0.000125 0
1.002823 -0.000137 0
1.002789 -0.000154 0
1.002745 -0.000173 0
1.002688 -0.000184 0
1.000000 -0.000698 0
1.000124 -0.002633 0
0.999594 -0.005284 0
0.999761 -0.008481 0
1.000070 -0.011861 0
1.000392 -0.015392 0
1.000782 -0.019392 0
1.001063 -0.023876 0
1.001078 -0.029256 0
1.001056 -0.035809 0
1.001446 -0.043771 0
1.000535 -0.053417 0
1.001878 -0.062730 0
0.997597 -0.077452 0
0.999895 -0.096118 0
0.988317 -0.112596 0
0.988350 -0.139207 0
0.961240 -0.170510 0
0.966992 -0.229454 0
0.891211 -0.292833 0
0.891722 -0.488988 0
0.622056 -0.585299 0
0.000000 0.001006 0
-0.634425 0.252543 0
-0.524046 0.000000 0
0.000000 0.000000 0
-0.034155 -0.067731 0
-0.082086 -0.389286 0
0.010051 -0.486676 0
0.353848 -0.130168 0
0.650337 0.252996 0
0.817278 0.545067 0
0.888654 0.681173 0
0.919110 0.688402 0
0.886176 0.694650 0
0.788658 0.685669 0
0.780617 0.520388 0
0.816986 0.288007 0
0.811436 0.142161 0
0.776448 0.078153 0
0.750313 0.041381 0
0.748333 0.010603 0
0.766536 -0.015276 0
0.794993 -0.035015 0
0.825794 -0.048441 0
0.854569 -0.056304 0
0.880073 -0.059799 0
0.902282 -0.060080 0
0.921312 -0.058137 0
0.937362 -0.054715 0
0.950583 -0.050440 0
0.961211 -0.045817 0
0.969830 -0.041123 0
0.976758 -0.036479 0
0.982214 -0.032016 0
0.986418 -0.027937 0
0.989573 -0.024334 0
0.992001 -0.021251 0
0.994168 -0.018565 0
0.995891 -0.016026 0
0.997017 -0.013812 0
0.998110 -0.012107 0
0.999038 -0.010522 0
0.999774 -0.009089 0
1.000417 -0.007972 0
1.000894 -0.006946 0
1.001296 -0.006028 0
1.001575 -0.005238 0
1.001803 -0.004543 0
1.001983 -0.003934 0
1.002130 -0.003399 0
1.002251 -0.002931 0
1.002351 -0.002523 0
1.002434 -0.002168 0
1.002505 -0.001861 0
1.002566 -0.001596 0
1.002619 -0.001367 0
1.002665 -0.001169 0
1.002705 -0.001000 0
1.002740 -0.000854 0
1.002770 -0.000730 0
1.002797 -0.000623 0
1.002819 -0.000532 0
1.002839 -0.000454 0
1.002855 -0.000388 0
1.002869 -0.000332 0
1.002880 -0.000284 0
1.002889 -0.000243 0
1.002895 -0.000209 0
1.002899 -0.000181 0
1.002901 -0.000157 0
1.002900 -0.000138 0
1.002897 -0.000123 0
1.002890 -0.000113 0
1.002879 -0.000106 0
1.002864 -0.000103 0
1.002842 -0.000104 0
1.002813 -0.000108 0
1.002776 -0.000115 0
1.002730 -0.000124 0
1.002672 -0.000129 0
1.000000 -0.000803 0
1.000142 -0.002395 0
0.999682 -0.004982 0
0.999467 -0.008480 0
0.999322 -0.011913 0
0.999451 -0.015581 0
0.999352 -0.019460 0
0.998933 -0.023559 0
0.998312 -0.028628 0
0.997554 -0.035536 0
0.996380 -0.042579 0
0.995351 -0.053069 0
0.992200 -0.060873 0
0.992350 -0.076342 0
0.982904 -0.086765 0
0.977323 -0.106103 0
0.962660 -0.122527 0
0.945861 -0.159303 0
0.915941 -0.176070 0
0.857058 -0.247704 0
0.782919 -0.227194 0
0.469891 -0.136852 0
0.336529 -0.083130 0
0.000000 0.000000 0
0.000000 0.000000 0
0.000000 0.000000 0
0.000000 0.000000 0
-0.067351 -0.229439 0
-0.383274 -0.546828 0
-0.219193 -0.454412 0
0.103848 -0.046939 0
0.336354 0.337719 0
0.501435 0.569851 0
0.584395 0.697331 0
0.591002 0.752689 0
0.646795 0.658765 0
0.713381 0.460525 0
0.688577 0.300877 0
0.621971 0.199711 0
0.593207 0.115732 0
0.608528 0.042710 0
0.647626 -0.012992 0
0.697199 -0.051298 0
0.748378 -0.074640 0
0.796269 -0.086132 0
0.837248 -0.089485 0
0.871093 -0.088146 0
0.899307 -0.083964 0