# vtk DataFile Version 2.0
generated by CFD-lab course output (written by Tobias Neckel) 
ASCII

DATASET STRUCTURED_GRID
DIMENSIONS  101 21 1 
POINTS 2121 float

0.000000 0.000000 0
0.100000 0.000000 0
0.200000 0.000000 0
0.300000 0.000000 0
0.400000 0.000000 0
0.500000 0.000000 0
0.600000 0.000000 0
0.700000 0.000000 0
0.800000 0.000000 0
0.900000 0.000000 0
1.000000 0.000000 0
1.100000 0.000000 0
1.200000 0.000000 0
1.300000 0.000000 0
1.400000 0.000000 0
1.500000 0.000000 0
1.600000 0.000000 0
1.700000 0.000000 0
1.800000 0.000000 0
1.900000 0.000000 0
2.000000 0.000000 0
2.100000 0.000000 0
2.200000 0.000000 0
2.300000 0.000000 0
2.400000 0.000000 0
2.500000 0.000000 0
2.600000 0.000000 0
2.700000 0.000000 0
2.800000 0.000000 0
2.900000 0.000000 0
3.000000 0.000000 0
3.100000 0.000000 0
3.200000 0.000000 0
3.300000 0.000000 0
3.400000 0.000000 0
3.500000 0.000000 0
3.600000 0.000000 0
3.700000 0.000000 0
3.800000 0.000000 0
3.900000 0.000000 0
4.000000 0.000000 0
4.100000 0.000000 0
4.200000 0.000000 0
4.300000 0.000000 0
4.400000 0.000000 0
4.500000 0.000000 0
4.600000 0.000000 0
4.700000 0.000000 0
4.800000 0.000000 0
4.900000 0.000000 0
5.000000 0.000000 0
5.100000 0.000000 0
5.200000 0.000000 0
5.300000 0.000000 0
5.400000 0.000000 0
5.500000 0.000000 0
5.600000 0.000000 0
5.700000 0.000000 0
5.800000 0.000000 0
5.900000 0.000000 0
6.000000 0.000000 0
6.100000 0.000000 0
6.200000 0.000000 0
6.300000 0.000000 0
6.400000 0.000000 0
6.500000 0.000000 0
6.600000 0.000000 0
6.700000 0.000000 0
6.800000 0.000000 0
6.900000 0.000000 0
7.000000 0.000000 0
7.100000 0.000000 0
7.200000 0.000000 0
7.300000 0.000000 0
7.400000 0.000000 0
7.500000 0.000000 0
7.600000 0.000000 0
7.700000 0.000000 0
7.800000 0.000000 0
7.900000 0.000000 0
8.000000 0.000000 0
8.100000 0.000000 0
8.200000 0.000000 0
8.300000 0.000000 0
8.400000 0.000000 0
8.500000 0.000000 0
8.600000 0.000000 0
8.700000 0.000000 0
8.800000 0.000000 0
8.900000 0.000000 0
9.000000 0.000000 0
9.100000 0.000000 0
9.200000 0.000000 0
9.300000 0.000000 0
9.400000 0.000000 0
9.500000 0.000000 0
9.600000 0.000000 0
9.700000 0.000000 0
9.800000 0.000000 0
9.900000 0.000000 0
10.000000 0.000000 0
0.000000 0.100000 0
0.100000 0.100000 0
0.200000 0.100000 0
0.300000 0.100000 0
0.400000 0.100000 0
0.500000 0.100000 0
0.600000 0.100000 0
0.700000 0.100000 0
0.800000 0.100000 0
0.900000 0.100000 0
1.000000 0.100000 0
1.100000 0.100000 0
1.200000 0.100000 0
1.300000 0.100000 0
1.400000 0.100000 0
1.500000 0.100000 0
1.600000 0.100000 0
1.700000 0.100000 0
1.800000 0.100000 0
1.900000 0.100000 0
2.000000 0.100000 0
2.100000 0.100000 0
2.200000 0.100000 0
2.300000 0.100000 0
2.400000 0.100000 0
2.500000 0.100000 0
2.600000 0.100000 0
2.700000 0.100000 0
2.800000 0.100000 0
2.900000 0.100000 0
3.000000 0.100000 0
3.100000 0.100000 0
3.200000 0.100000 0
3.300000 0.100000 0
3.400000 0.100000 0
3.500000 0.100000 0
3.600000 0.100000 0
3.700000 0.100000 0
3.800000 0.100000 0
3.900000 0.100000 0
4.000000 0.100000 0
4.100000 0.100000 0
4.200000 0.100000 0
4.300000 0.100000 0
4.400000 0.100000 0
4.500000 0.100000 0
4.600000 0.100000 0
4.700000 0.100000 0
4.800000 0.100000 0
4.900000 0.100000 0
5.000000 0.100000 0
5.100000 0.100000 0
5.200000 0.100000 0
5.300000 0.100000 0
5.400000 0.100000 0
5.500000 0.100000 0
5.600000 0.100000 0
5.700000 0.100000 0
5.800000 0.100000 0
5.900000 0.100000 0
6.000000 0.100000 0
6.100000 0.100000 0
6.200000 0.100000 0
6.300000 0.100000 0
6.400000 0.100000 0
6.500000 0.100000 0
6.600000 0.100000 0
6.700000 0.100000 0
6.800000 0.100000 0
6.900000 0.100000 0
7.000000 0.100000 0
7.100000 0.100000 0
7.200000 0.100000 0
7.300000 0.100000 0
7.400000 0.100000 0
7.500000 0.100000 0
7.600000 0.100000 0
7.700000 0.100000 0
7.800000 0.100000 0
7.900000 0.100000 0
8.000000 0.100000 0
8.100000 0.100000 0
8.200000 0.100000 0
8.300000 0.100000 0
8.400000 0.100000 0
8.500000 0.100000 0
8.600000 0.100000 0
8.700000 0.100000 0
8.800000 0.100000 0
8.900000 0.100000 0
9.000000 0.100000 0
9.100000 0.100000 0
9.200000 0.100000 0
9.300000 0.100000 0
9.400000 0.100000 0
9.500000 0.100000 0
9.600000 0.100000 0
9.700000 0.100000 0
9.800000 0.100000 0
9.900000 0.100000 0
10.000000 0.100000 0
0.000000 0.200000 0
0.100000 0.200000 0
0.200000 0.200000 0
0.300000 0.200000 0
0.400000 0.200000 0
0.500000 0.200000 0
0.600000 0.200000 0
0.700000 0.200000 0
0.800000 0.200000 0
0.900000 0.200000 0
1.000000 0.200000 0
1.100000 0.200000 0
1.200000 0.200000 0
1.300000 0.200000 0
1.400000 0.200000 0
1.500000 0.200000 0
1.600000 0.200000 0
1.700000 0.200000 0
1.800000 0.200000 0
1.900000 0.200000 0
2.000000 0.200000 0
2.100000 0.200000 0
2.200000 0.200000 0
2.300000 0.200000 0
2.400000 0.200000 0
2.500000 0.200000 0
2.600000 0.200000 0
2.700000 0.200000 0
2.800000 0.200000 0
2.900000 0.200000 0
3.000000 0.200000 0
3.100000 0.200000 0
3.200000 0.200000 0
3.300000 0.200000 0
3.400000 0.200000 0
3.500000 0.200000 0
3.600000 0.200000 0
3.700000 0.200000 0
3.800000 0.200000 0
3.900000 0.200000 0
4.000000 0.200000 0
4.100000 0.200000 0
4.200000 0.200000 0
4.300000 0.200000 0
4.400000 0.200000 0
4.500000 0.200000 0
4.600000 0.200000 0
4.700000 0.200000 0
4.800000 0.200000 0
4.900000 0.200000 0
5.000000 0.200000 0
5.100000 0.200000 0
5.200000 0.200000 0
5.300000 0.200000 0
5.400000 0.200000 0
5.500000 0.200000 0
5.600000 0.200000 0
5.700000 0.200000 0
5.800000 0.200000 0
5.900000 0.200000 0
6.000000 0.200000 0
6.100000 0.200000 0
6.200000 0.200000 0
6.300000 0.200000 0
6.400000 0.200000 0
6.500000 0.200000 0
6.600000 0.200000 0
6.700000 0.200000 0
6.800000 0.200000 0
6.900000 0.200000 0
7.000000 0.200000 0
7.100000 0.200000 0
7.200000 0.200000 0
7.300000 0.200000 0
7.400000 0.200000 0
7.500000 0.200000 0
7.600000 0.200000 0
7.700000 0.200000 0
7.800000 0.200000 0
7.900000 0.200000 0
8.000000 0.200000 0
8.100000 0.200000 0
8.200000 0.200000 0
8.300000 0.200000 0
8.400000 0.200000 0
8.500000 0.200000 0
8.600000 0.200000 0
8.700000 0.200000 0
8.800000 0.200000 0
8.900000 0.200000 0
9.000000 0.200000 0
9.100000 0.200000 0
9.200000 0.200000 0
9.300000 0.200000 0
9.400000 0.200000 0
9.500000 0.200000 0
9.600000 0.200000 0
9.700000 0.200000 0
9.800000 0.200000 0
9.900000 0.200000 0
10.000000 0.200000 0
0.000000 0.300000 0
0.100000 0.300000 0
0.200000 0.300000 0
0.300000 0.300000 0
0.400000 0.300000 0
0.500000 0.300000 0
0.600000 0.300000 0
0.700000 0.300000 0
0.800000 0.300000 0
0.900000 0.300000 0
1.000000 0.300000 0
1.100000 0.300000 0
1.200000 0.300000 0
1.300000 0.300000 0
1.400000 0.300000 0
1.500000 0.300000 0
1.600000 0.300000 0
1.700000 0.300000 0
1.800000 0.300000 0
1.900000 0.300000 0
2.000000 0.300000 0
2.100000 0.300000 0
2.200000 0.300000 0
2.300000 0.300000 0
2.400000 0.300000 0
2.500000 0.300000 0
2.600000 0.300000 0
2.700000 0.300000 0
2.800000 0.300000 0
2.900000 0.300000 0
3.000000 0.300000 0
3.100000 0.300000 0
3.200000 0.300000 0
3.300000 0.300000 0
3.400000 0.300000 0
3.500000 0.300000 0
3.600000 0.300000 0
3.700000 0.300000 0
3.800000 0.300000 0
3.900000 0.300000 0
4.000000 0.300000 0
4.100000 0.300000 0
4.200000 0.300000 0
4.300000 0.300000 0
4.400000 0.300000 0
4.500000 0.300000 0
4.600000 0.300000 0
4.700000 0.300000 0
4.800000 0.300000 0
4.900000 0.300000 0
5.000000 0.300000 0
5.100000 0.300000 0
5.200000 0.300000 0
5.300000 0.300000 0
5.400000 0.300000 0
5.500000 0.300000 0
5.600000 0.300000 0
5.700000 0.300000 0
5.800000 0.300000 0
5.900000 0.300000 0
6.000000 0.300000 0
6.100000 0.300000 0
6.200000 0.300000 0
6.300000 0.300000 0
6.400000 0.300000 0
6.500000 0.300000 0
6.600000 0.300000 0
6.700000 0.300000 0
6.800000 0.300000 0
6.900000 0.300000 0
7.000000 0.300000 0
7.100000 0.300000 0
7.200000 0.300000 0
7.300000 0.300000 0
7.400000 0.300000 0
7.500000 0.300000 0
7.600000 0.300000 0
7.700000 0.300000 0
7.800000 0.300000 0
7.900000 0.300000 0
8.000000 0.300000 0
8.100000 0.300000 0
8.200000 0.300000 0
8.300000 0.300000 0
8.400000 0.300000 0
8.500000 0.300000 0
8.600000 0.300000 0
8.700000 0.300000 0
8.800000 0.300000 0
8.900000 0.300000 0
9.000000 0.300000 0
9.100000 0.300000 0
9.200000 0.300000 0
9.300000 0.300000 0
9.400000 0.300000 0
9.500000 0.300000 0
9.600000 0.300000 0
9.700000 0.300000 0
9.800000 0.300000 0
9.900000 0.300000 0
10.000000 0.300000 0
0.000000 0.400000 0
0.100000 0.400000 0
0.200000 0.400000 0
0.300000 0.400000 0
0.400000 0.400000 0
0.500000 0.400000 0
0.600000 0.400000 0
0.700000 0.400000 0
0.800000 0.400000 0
0.900000 0.400000 0
1.000000 0.400000 0
1.100000 0.400000 0
1.200000 0.400000 0
1.300000 0.400000 0
1.400000 0.400000 0
1.500000 0.400000 0
1.600000 0.400000 0
1.700000 0.400000 0
1.800000 0.400000 0
1.900000 0.400000 0
2.000000 0.400000 0
2.100000 0.400000 0
2.200000 0.400000 0
2.300000 0.400000 0
2.400000 0.400000 0
2.500000 0.400000 0
2.600000 0.400000 0
2.700000 0.400000 0
2.800000 0.400000 0
2.900000 0.400000 0
3.000000 0.400000 0
3.100000 0.400000 0
3.200000 0.400000 0
3.300000 0.400000 0
3.400000 0.400000 0
3.500000 0.400000 0
3.600000 0.400000 0
3.700000 0.400000 0
3.800000 0.400000 0
3.900000 0.400000 0
4.000000 0.400000 0
4.100000 0.400000 0
4.200000 0.400000 0
4.300000 0.400000 0
4.400000 0.400000 0
4.500000 0.400000 0
4.600000 0.400000 0
4.700000 0.400000 0
4.800000 0.400000 0
4.900000 0.400000 0
5.000000 0.400000 0
5.100000 0.400000 0
5.200000 0.400000 0
5.300000 0.400000 0
5.400000 0.400000 0
5.500000 0.400000 0
5.600000 0.400000 0
5.700000 0.400000 0
5.800000 0.400000 0
5.900000 0.400000 0
6.000000 0.400000 0
6.100000 0.400000 0
6.200000 0.400000 0
6.300000 0.400000 0
6.400000 0.400000 0
6.500000 0.400000 0
6.600000 0.400000 0
6.700000 0.400000 0
6.800000 0.400000 0
6.900000 0.400000 0
7.000000 0.400000 0
7.100000 0.400000 0
7.200000 0.400000 0
7.300000 0.400000 0
7.400000 0.400000 0
7.500000 0.400000 0
7.600000 0.400000 0
7.700000 0.400000 0
7.800000 0.400000 0
7.900000 0.400000 0
8.000000 0.400000 0
8.100000 0.400000 0
8.200000 0.400000 0
8.300000 0.400000 0
8.400000 0.400000 0
8.500000 0.400000 0
8.600000 0.400000 0
[...]
POINT_DATA 2121 

VECTORS velocity float
0.500000 0.000000 0
0.000000 0.000000 0
0.000002 0.000000 0
0.000006 0.000000 0
0.000011 0.000000 0
0.000019 0.000000 0
0.000029 0.000000 0
0.000043 0.000000 0
0.000045 0.000000 0
0.000039 0.000000 0
0.000023 0.000000 0
-0.000012 0.000000 0
-0.000049 0.000000 0
-0.000079 0.000000 0
-0.000103 0.000000 0
-0.000129 0.000000 0
-0.000165 0.000000 0
-0.000215 0.000000 0
-0.000279 0.000000 0
-0.000359 0.000000 0
-0.000454 0.000000 0
-0.000562 0.000000 0
-0.000693 0.000000 0
-0.000878 0.000000 0
-0.001142 0.000000 0
-0.001502 0.000000 0
-0.001959 0.000000 0
-0.002485 0.000000 0
-0.003014 0.000000 0
-0.003426 0.000000 0
-0.003430 0.000000 0
-0.002843 0.000000 0
-0.001650 0.000000 0
0.000014 0.000000 0
0.001815 0.000000 0
0.003443 0.000000 0
0.004815 0.000000 0
0.006028 0.000000 0
0.006574 0.000000 0
0.006685 0.000000 0
0.013246 0.000000 0
0.012906 0.000000 0
-0.002279 0.000000 0
0.006202 0.000000 0
0.021190 0.000000 0
0.020018 0.000000 0
0.010931 0.000000 0
0.003211 0.000000 0
-0.002232 0.000000 0
-0.007458 0.000000 0
-0.013269 0.000000 0
-0.018491 0.000000 0
-0.020525 0.000000 0
-0.018105 0.000000 0
-0.014857 0.000000 0
-0.019886 0.000000 0
-0.021157 0.000000 0
-0.021936 0.000000 0
-0.022160 0.000000 0
-0.021806 0.000000 0
-0.017522 0.000000 0
-0.010756 0.000000 0
-0.005163 0.000000 0
-0.000631 0.000000 0
0.002641 0.000000 0
0.006304 0.000000 0
0.012736 0.000000 0
0.024602 0.000000 0
0.036429 0.000000 0
0.040567 0.000000 0
0.035017 0.000000 0
0.011168 0.000000 0
-0.003156 0.000000 0
-0.007154 0.000000 0
-0.005195 0.000000 0
-0.002705 0.000000 0
-0.001453 0.000000 0
0.000301 0.000000 0
0.000560 0.000000 0
-0.000046 0.000000 0
-0.000455 0.000000 0
-0.000426 0.000000 0
-0.000314 0.000000 0
-0.000275 0.000000 0
-0.000287 0.000000 0
-0.000303 0.000000 0
-0.000306 0.000000 0
-0.000306 0.000000 0
-0.000315 0.000000 0
-0.000335 0.000000 0
-0.000354 0.000000 0
-0.000358 0.000000 0
-0.000350 0.000000 0
-0.000345 0.000000 0
-0.000356 0.000000 0
-0.000381 0.000000 0
-0.000398 0.000000 0
-0.000401 0.000000 0
-0.000372 0.000000 0
-0.000341 0.000000 0
-0.000337 0.000000 0
1.000000 0.000366 0
0.999887 0.000897 0
0.999715 0.001086 0
0.999571 0.001081 0
0.999514 0.000980 0
0.999599 0.000837 0
0.999888 0.000625 0
1.000483 0.000295 0
1.001515 -0.000210 0
1.003184 -0.001002 0
1.005755 -0.002479 0
1.009592 -0.004203 0
1.014941 -0.005933 0
1.022227 -0.008213 0
1.031994 -0.011088 0
1.044928 -0.014709 0
1.061867 -0.019205 0
1.083764 -0.024564 0
1.111506 -0.030561 0
1.145730 -0.036665 0
1.186449 -0.041894 0
1.232343 -0.044868 0
1.280440 -0.044074 0
1.324989 -0.039315 0
1.361956 -0.032341 0
1.390434 -0.025433 0
1.412007 -0.020307 0
1.429420 -0.017908 0
1.445850 -0.018605 0
1.464887 -0.021776 0
1.489429 -0.024518 0
1.517730 -0.022346 0
1.542006 -0.011847 0
1.550897 0.006893 0
1.537363 0.028728 0
1.500334 0.048797 0
1.444342 0.066285 0
1.373313 0.080388 0
1.291791 0.085935 0
1.202112 0.098065 0
1.098194 0.161743 0
0.995242 0.141251 0
0.922074 0.018870 0
0.748171 0.056312 0
0.527857 0.206971 0
0.315332 0.235426 0
0.176660 0.141009 0
0.123546 0.039337 0
0.124762 -0.030863 0
0.162679 -0.087089 0
0.245697 -0.140725 0
0.374298 -0.182124 0
0.545943 -0.193859 0
0.741915 -0.169278 0
0.924984 -0.144793 0
1.077386 -0.151843 0
1.231417 -0.164430 0
1.390464 -0.166210 0
1.548775 -0.163956 0
1.698692 -0.156229 0
1.831094 -0.125620 0
1.931096 -0.075918 0
1.991672 -0.031989 0
2.015802 0.003407 0
2.008145 0.031080 0
1.968385 0.061973 0
1.885044 0.114461 0
1.748362 0.191883 0
1.563490 0.271322 0
1.360882 0.310199 0
1.193252 0.255959 0
1.096017 0.119350 0
1.051929 0.001263 0
1.026115 -0.045308 0
0.999254 -0.042824 0
0.969009 -0.025561 0
0.939333 -0.012806 0
0.913341 -0.003314 0
0.898377 0.001100 0
0.894787 -0.001102 0
0.898437 -0.003729 0
0.904535 -0.004043 0
0.908246 -0.002994 0
0.910804 -0.002322 0
0.913226 -0.002126 0
0.915505 -0.002024 0
0.917567 -0.001839 0
0.919534 -0.001630 0
0.921554 -0.001515 0
0.923591 -0.001513 0
0.925443 -0.001519 0
0.926953 -0.001402 0
0.928220 -0.001167 0
0.929495 -0.000936 0
0.930955 -0.000861 0
0.932526 -0.000916 0
0.933891 -0.000902 0
0.934888 -0.000822 0
0.935350 -0.000421 0
0.935503 -0.000374 0
0.936060 -0.000687 0
1.000000 0.000128 0
1.000402 0.000307 0
1.001020 0.000329 0
1.001765 0.000214 0
1.002634 -0.000015 0
1.003646 -0.000362 0
1.004897 -0.000871 0
1.006449 -0.001615 0
1.008443 -0.002690 0
1.011011 -0.004228 0
1.014328 -0.006396 0
1.018284 -0.009175 0
1.023633 -0.012624 0
1.030706 -0.017043 0
1.040040 -0.022691 0
1.052318 -0.029861 0
1.068415 -0.038824 0
1.089501 -0.049628 0
1.116719 -0.061955 0
1.151265 -0.074932 0
1.194122 -0.086601 0
1.244512 -0.093978 0
1.300669 -0.092634 0
1.351076 -0.081504 0
1.389639 -0.065433 0
1.416317 -0.050039 0
1.434474 -0.038974 0
1.447563 -0.033831 0
1.459026 -0.035456 0
1.474054 -0.043568 0
1.498480 -0.052832 0
1.534751 -0.052568 0
1.573842 -0.033158 0
1.594688 0.004651 0
1.588006 0.050570 0
1.554117 0.093028 0
1.499266 0.127027 0
1.431533 0.152556 0
1.351700 0.171205 0
1.253881 0.193601 0
1.157812 0.206872 0
1.111809 0.176122 0
0.954257 0.247072 0
0.673911 0.394218 0
0.479287 0.432840 0
0.390387 0.351197 0
0.360932 0.191786 0
0.345234 0.051898 0
0.321398 -0.039134 0
0.312896 -0.120937 0
0.337100 -0.211621 0
0.387660 -0.300248 0
0.471500 -0.367619 0
0.605813 -0.379043 0
0.793188 -0.335474 0
0.975444 -0.306436 0
1.115950 -0.313081 0
1.251497 -0.317361 0
1.382821 -0.308231 0
1.507713 -0.282323 0
1.620165 -0.232407 0
1.716301 -0.160580 0
1.781905 -0.084709 0
1.811388 -0.016477 0
1.807628 0.047413 0
1.771486 0.123098 0
1.701960 0.220020 0
1.607382 0.321550 0
1.512105 0.387476 0
1.438791 0.370234 0
1.396258 0.264861 0
1.346174 0.141318 0
1.269862 0.069898 0
1.195836 0.052670 0
1.132555 0.057101 0
1.085185 0.059916 0
1.050031 0.055662 0
1.023998 0.040950 0
1.007177 0.018547 0
0.992609 -0.000067 0
0.976988 -0.009755 0
0.962504 -0.009817 0
0.955108 -0.006277 0
0.953266 -0.004988 0
0.954880 -0.004710 0
0.957471 -0.004350 0
0.960111 -0.004038 0
0.962670 -0.003997 0
0.965089 -0.004069 0
0.967257 -0.003900 0
0.969182 -0.003373 0
0.971040 -0.002789 0
0.973033 -0.002554 0
0.975205 -0.002747 0
0.977390 -0.003043 0
0.979269 -0.002949 0
0.980657 -0.002375 0
0.981652 -0.001471 0
0.982256 -0.000627 0
0.983154 -0.000723 0
0.983694 -0.001127 0
1.000000 -0.000026 0
1.000273 -0.000110 0
1.000738 -0.000272 0
1.001346 -0.000527 0
1.002078 -0.000897 0
1.002945 -0.001422 0
1.003990 -0.002173 0
1.005269 -0.003247 0
1.006873 -0.004768 0
1.008917 -0.006883 0
1.011534 -0.009749 0
1.014849 -0.013504 0
1.019225 -0.018351 0
1.025013 -0.024616 0
1.032682 -0.032695 0
1.042834 -0.043080 0
1.056310 -0.056383 0
1.074877 -0.072864 0
1.099898 -0.092321 0
1.133475 -0.114062 0
1.178775 -0.135137 0
1.235687 -0.151410 0
1.311627 -0.150633 0
1.373790 -0.128280 0
1.413586 -0.097578 0
1.434818 -0.070264 0
1.445734 -0.051548 0
1.449929 -0.042456 0
1.449624 -0.045092 0
1.454150 -0.061226 0
1.473686 -0.085211 0
1.518659 -0.097704 0
1.588419 -0.071781 0
1.630888 -0.007268 0
1.630907 0.069301 0
1.595315 0.137540 0
1.533671 0.188870 0
1.461653 0.227955 0
1.386187 0.263589 0
1.307220 0.291954 0
1.230939 0.303815 0
1.132202 0.344807 0
0.954401 0.456769 0
0.835092 0.531283 0
0.774563 0.490495 0
0.767582 0.353781 0
0.762350 0.186161 0
0.684829 0.078871 0
0.593925 0.001475 0
0.562302 -0.102791 0
0.584334 -0.215489 0
0.631144 -0.316525 0
0.657001 -0.412012 0
0.665566 -0.490967 0
0.728795 -0.514425 0
0.870525 -0.474605 0
1.009345 -0.440485 0
1.117719 -0.433081 0
1.215071 -0.420174 0
1.308464 -0.393574 0
1.396010 -0.334209 0
1.471570 -0.237660 0
1.522290 -0.127077 0
1.540774 -0.022318 0
1.528378 0.070980 0
1.490984 0.167640 0
1.440011 0.278563 0
1.385111 0.381735 0
1.333644 0.439911 0
1.291654 0.426045 0
1.244970 0.348574 0
1.174176 0.245743 0
1.093761 0.151599 0
1.033846 0.091997 0
1.003116 0.067825 0
0.994948 0.056961 0
0.997017 0.048379 0
1.000512 0.039537 0
0.996993 0.032486 0
0.985642 0.029084 0
0.970155 0.026372 0
0.955744 0.017834 0
0.948678 0.006241 0
0.947720 -0.002098 0
0.952094 -0.006336 0
0.956117 -0.007258 0
0.959084 -0.007042 0
0.961454 -0.006612 0
0.963493 -0.006107 0
0.965413 -0.005612 0
0.967505 -0.005307 0
0.969978 -0.005257 0
0.972746 -0.005337 0
0.975436 -0.005299 0
0.977657 -0.004930 0
0.979290 -0.004188 0
0.980537 -0.003290 0
0.981696 -0.002426 0
0.982901 -0.001928 0
0.984370 -0.001817 0
0.985033 -0.001777 0
1.000000 -0.000135 0
1.000198 -0.000417 0
1.000546 -0.000738 0
1.001018 -0.001122 0
1.001592 -0.001610 0
1.002264 -0.002269 0
1.003046 -0.003191 0
1.003969 -0.004494 0
1.005084 -0.006334 0
1.006499 -0.008885 0
1.008330 -0.012324 0
1.010698 -0.016861 0
1.013818 -0.022783 0
1.017932 -0.030495 0
1.023429 -0.040508 0
1.030732 -0.053486 0
1.039972 -0.070862 0
1.054812 -0.093211 0
1.075724 -0.120548 0
1.105788 -0.153804 0
1.152126 -0.188810 0
1.214596 -0.226826 0
1.342482 -0.230732 0
1.422024 -0.183458 0
1.457088 -0.126456 0
1.463420 -0.082183 0
1.461956 -0.054081 0
1.452866 -0.037717 0
1.428327 -0.039673 0
1.408260 -0.067626 0
1.410631 -0.117337 0
1.445264 -0.167297 0
1.571598 -0.145384 0
1.649248 -0.037834 0
1.665922 0.086146 0
1.644007 0.190266 0
1.585484 0.260691 0
1.497395 0.300042 0
1.400759 0.325640 0
1.315021 0.348851 0
1.242607 0.381892 0
1.159293 0.452660 0
1.080886 0.544183 0
1.049725 0.574057 0
1.027375 0.500350 0
0.975454 0.363410 0
0.870446 0.274540 0
0.715437 0.220322 0
0.619742 0.083392 0
0.601919 -0.111347 0
0.624318 -0.280464 0
0.685144 -0.372915 0
0.769973 -0.402041 0
0.820245 -0.450837 0
0.809218 -0.540434 0
0.819534 -0.586987 0
0.903416 -0.560276 0
0.995888 -0.523088 0
1.067932 -0.498978 0
1.124037 -0.463263 0
1.175925 -0.395514 0
1.224398 -0.286862 0
1.257307 -0.153915 0
1.263301 -0.022565 0
1.244252 0.097203 0
1.201189 0.211464 0
1.148259 0.325892 0
1.105194 0.427915 0
1.086847 0.480931 0
1.080425 0.458906 0
1.062740 0.382337 0
1.029436 0.292525 0
0.994336 0.210226 0
0.967436 0.143314 0
0.958615 0.095996 0
0.961450 0.066012 0
0.968053 0.050095 0
0.974683 0.040971 0
0.979266 0.033414 0
0.982648 0.026768 0
0.986585 0.020140 0
0.989829 0.011656 0
0.987706 0.001742 0
0.981287 -0.008408 0
0.971016 -0.013110 0
0.963877 -0.011344 0
0.960684 -0.009381 0
0.960185 -0.008411 0
0.961277 -0.008032 0
0.963358 -0.007916 0
0.966099 -0.007942 0
0.969219 -0.008034 0
0.972356 -0.008017 0
0.975169 -0.007664 0
0.977492 -0.006902 0
0.979361 -0.005834 0
0.981012 -0.004786 0
0.982652 -0.003840 0
0.984224 -0.003306 0
0.985853 -0.002860 0
0.986568 -0.002454 0
1.000000 -0.000213 0
1.000143 -0.000643 0
1.000395 -0.001088 0
1.000740 -0.001569 0
1.001151 -0.002137 0
1.001607 -0.002871 0
1.002103 -0.003875 0
1.002628 -0.005281 0
1.003163 -0.007294 0
1.003851 -0.010125 0
1.004802 -0.013943 0
1.006033 -0.018987 0
1.007684 -0.025581 0
1.009782 -0.034223 0
1.012693 -0.045490 0
1.016953 -0.059618 0
1.018733 -0.080460 0
1.029093 -0.108612 0
1.042722 -0.143293 0
1.063926 -0.190460 0
1.104019 -0.243940 0
1.166473 -0.341762 0
1.413824 -0.358056 0
1.482796 -0.242882 0
1.484934 -0.138969 0
1.451628 -0.075126 0
1.430203 -0.040990 0
1.412957 -0.008823 0
1.339866 -0.000482 0
1.269590 -0.043526 0
1.227037 -0.122211 0
1.169421 -0.258667 0
1.365524 -0.275762 0
1.480825 -0.101588 0
1.523082 0.074545 0
1.561554 0.217980 0
1.570155 0.335485 0
1.531249 0.412683 0
1.452499 0.445965 0
1.351099 0.450108 0
1.246082 0.459545 0
1.152113 0.506530 0
1.095941 0.566337 0
1.082274 0.584795 0
1.070221 0.564768 0
1.009878 0.510711 0
0.853349 0.446178 0
0.709304 0.329574 0
0.670716 0.114993 0
0.662120 -0.107367 0
0.613783 -0.298715 0
0.553045 -0.462180 0
0.569934 -0.547113 0
0.691823 -0.530214 0
0.795234 -0.513715 0
0.811233 -0.568804 0
0.814123 -0.616840 0
0.856893 -0.597598 0
0.901062 -0.548324 0
0.920812 -0.501569 0
0.928105 -0.434570 0
0.941165 -0.319043 0
0.958353 -0.165982 0
0.964601 -0.009264 0
0.951164 0.133091 0
0.920081 0.263632 0
0.889603 0.374556 0
0.880903 0.443146 0
0.899316 0.464678 0
0.929384 0.450151 0
0.943782 0.399561 0
0.944361 0.314145 0
0.948518 0.213597 0
0.957735 0.127716 0
0.967344 0.073809 0
0.972239 0.047520 0
0.973140 0.035143 0
0.973263 0.028322 0
0.973042 0.024518 0
0.972748 0.021761 0
0.972643 0.019188 0
0.972106 0.016709 0
0.969496 0.014779 0
0.964537 0.014588 0
0.956574 0.011070 0
0.951938 0.003070 0
0.951062 -0.003354 0
0.952616 -0.007210 0
0.955594 -0.009284 0
0.959463 -0.010438 0
0.963815 -0.011172 0
0.968162 -0.011519 0
0.972028 -0.011293 0
0.975148 -0.010439 0
0.977628 -0.009127 0
0.979812 -0.007713 0
0.982019 -0.006585 0
0.984304 -0.005643 0
0.986539 -0.005135 0
0.988495 -0.004166 0
0.989245 -0.003199 0
1.000000 -0.000268 0
1.000095 -0.000800 0
1.000263 -0.001331 0
1.000494 -0.001874 0
1.000754 -0.002473 0
1.001007 -0.003217 0
1.001249 -0.004207 0
1.001469 -0.005550 0
1.001364 -0.007554 0
1.001334 -0.010520 0
1.001015 -0.014502 0
1.001178 -0.019740 0
1.000988 -0.026529 0
1.002116 -0.035500 0
1.000573 -0.047675 0
1.002555 -0.059523 0
0.999784 -0.082999 0
1.001007 -0.117196 0
1.000706 -0.155376 0
1.008279 -0.215097 0
1.026097 -0.291352 0
1.083231 -0.536627 0
1.443377 -0.547051 0
1.363298 -0.254562 0
1.271636 -0.095283 0
1.235288 -0.027447 0
1.078804 -0.015405 0
1.127577 0.052624 0
1.146155 0.103699 0
0.856024 0.045208 0
0.681197 -0.017165 0
0.436779 -0.305781 0
0.664112 -0.456784 0
0.863507 -0.195389 0
0.959812 0.005420 0
1.189825 0.143196 0
1.305847 0.290998 0
1.361886 0.417700 0
1.392439 0.505793 0
1.375028 0.555269 0
1.315352 0.580880 0
1.244792 0.602803 0
1.205267 0.614023 0
1.199888 0.599779 0
1.189138 0.572747 0
1.122865 0.580282 0
0.935358 0.575114 0
0.843750 0.402956 0
0.809271 0.130576 0
0.755226 -0.054414 0
0.668295 -0.171389 0
0.556741 -0.329066 0
0.452670 -0.540819 0
0.454944 -0.676138 0
0.588812 -0.659845 0
0.720119 -0.605877 0
0.758815 -0.605936 0
0.757247 -0.610028 0
0.769654 -0.562898 0
0.778015 -0.490307 0
0.758937 -0.415868 0
0.727655 -0.317111 0
0.706441 -0.177352 0
0.697983 -0.015377 0
0.693376 0.141721 0
0.693495 0.273023 0
0.710665 0.365069 0
0.745096 0.418201 0
0.784573 0.432447 0
0.829834 0.414439 0
0.879468 0.367359 0
0.926776 0.287786 0
0.959707 0.196849 0
0.968880 0.124486 0
0.957987 0.081490 0
0.937783 0.060213 0
0.916986 0.049069 0
0.899042 0.041066 0
0.886224 0.033925 0
0.879137 0.027163 0
0.877501 0.020779 0
0.880619 0.014800 0
0.887662 0.009307 0
0.897884 0.004509 0
0.911442 -0.000515 0
0.923079 -0.005836 0
0.932498 -0.010064 0
0.940730 -0.012947 0
0.948489 -0.014883 0
0.955854 -0.016142 0
0.962440 -0.016645 0
0.967806 -0.016252 0
0.971898 -0.015008 0
0.975148 -0.013269 0
0.978211 -0.011570 0
0.981463 -0.010229 0
0.984849 -0.009283 0
0.987989 -0.008365 0
0.990689 -0.007503 0
0.992359 -0.005570 0
0.993028 -0.003929 0
1.000000 -0.000299 0
1.000045 -0.000894 0
1.000137 -0.001482 0
1.000281 -0.002057 0
1.000423 -0.002646 0
1.000527 -0.003362 0
1.000429 -0.004333 0
1.000508 -0.005393 0
0.999931 -0.007155 0
0.999839 -0.009772 0
0.998956 -0.013783 0
0.997654 -0.018957 0
0.995873 -0.026516 0
0.994722 -0.033804 0
0.991307 -0.045926 0
0.988524 -0.058826 0
0.982816 -0.078908 0
0.979993 -0.109530 0
0.951441 -0.150562 0
0.964745 -0.215847 0
0.894398 -0.318887 0
1.003069 -0.759037 0
0.711859 -0.566982 0
0.001504 0.000000 0
0.002282 0.000000 0
0.522998 0.128665 0
0.498591 0.066726 0
0.519015 -0.076169 0
0.306418 0.271076 0
0.187671 0.421436 0
0.024270 0.297038 0
-0.208699 -0.241579 0
-0.310749 -0.702486 0
-0.161584 -0.397285 0
0.032531 -0.251769 0
0.559910 -0.128053 0
0.860573 0.163426 0
1.059984 0.326093 0
1.161276 0.432826 0
1.223210 0.527197 0
1.257998 0.589783 0
1.262209 0.616617 0
1.252058 0.611243 0
1.231375 0.600924 0
1.180120 0.641791 0
1.068393 0.764491 0
0.968470 0.725294 0
0.902161 0.455662 0
0.757593 0.203517 0
0.604097 0.033610 0
0.509524 -0.100231 0
0.496243 -0.246556 0
0.504776 -0.445316 0
0.487994 -0.666357 0
0.512926 -0.778891 0
0.615828 -0.738807 0
0.709773 -0.653968 0
0.726526 -0.608438 0
0.697911 -0.569093 0
0.670605 -0.490853 0
0.641644 -0.384212 0
0.601514 -0.266549 0
0.563916 -0.136312 0
0.545162 0.003800 0
0.549588 0.137578 0
0.576649 0.246341 0
0.619169 0.322953 0
0.669396 0.369235 0
0.727304 0.379938 0
0.791324 0.355254 0
0.861805 0.302617 0
0.922529 0.233904 0
0.952559 0.171491 0
0.948419 0.129434 0
0.923263 0.104902 0
0.892576 0.088518 0
0.866133 0.073881 0
0.847687 0.059081 0
0.837998 0.044420 0
0.836376 0.030481 0
0.841415 0.017702 0
0.851362 0.006545 0
0.864456 -0.002489 0
0.879274 -0.009195 0
0.894923 -0.014129 0
0.909870 -0.017991 0
0.923619 -0.021009 0
0.935991 -0.023205 0
0.946747 -0.024412 0
0.955658 -0.024394 0
0.962716 -0.023129 0
0.968275 -0.020982 0
0.972921 -0.018638 0
0.977419 -0.016756 0
0.982200 -0.015448 0
0.986929 -0.014356 0
0.990901 -0.013115 0
0.993753 -0.011487 0
0.995875 -0.009510 0
0.996716 -0.006510 0
0.997238 -0.004500 0
1.000000 -0.000303 0
1.000014 -0.000926 0
1.000024 -0.001563 0
1.000111 -0.002156 0
1.000161 -0.002716 0
1.000044 -0.003219 0
1.000087 -0.004184 0
0.999411 -0.005048 0
0.999782 -0.006881 0
0.998094 -0.009541 0
0.997931 -0.012314 0
0.995391 -0.016653 0
0.994665 -0.023594 0
0.987881 -0.030931 0
0.987248 -0.041474 0
0.974214 -0.051028 0
0.974337 -0.074465 0
0.948625 -0.085818 0
0.936740 -0.140125 0
0.887622 -0.158050 0
0.828874 -0.329672 0
0.723043 -0.425222 0
0.000000 -0.001930 0
-0.605820 0.149373 0
-0.526154 0.000000 0
0.000000 0.000000 0
0.115311 -0.024774 0
0.055423 0.244802 0
-0.157135 0.435048 0
0.035873 0.327360 0
-0.335067 0.379210 0
-0.451616 0.029242 0
-0.791677 -0.503896 0
-0.840194 -0.538665 0
-0.395957 -0.716070 0
-0.055231 -0.684843 0
0.397257 -0.209073 0
0.741989 0.117000 0
0.951113 0.342569 0
1.059929 0.458549 0
1.127499 0.541883 0
1.176860 0.608745 0
1.196141 0.644858 0
1.181678 0.671718 0
1.136227 0.735729 0
1.096819 0.791933 0
1.134346 0.741347 0
1.076419 0.613833 0
0.933545 0.428641 0
0.796591 0.193656 0
0.708710 -0.063536 0
0.679021 -0.324319 0
0.714800 -0.532571 0
0.747575 -0.684289 0
0.735586 -0.787679 0
0.722592 -0.802724 0
0.727367 -0.716635 0
0.737123 -0.598168 0
0.712318 -0.506978 0
0.661984 -0.434041 0
0.611227 -0.346779 0
0.569056 -0.239384 0
0.538883 -0.121001 0
0.527302 -0.001051 0
0.537807 0.110232 0
0.567996 0.203440 0
0.611635 0.272320 0
0.667982 0.310064 0
0.737563 0.310518 0
0.809170 0.279935 0
0.868443 0.236151 0
0.898532 0.197030 0
0.895284 0.170957 0
0.870815 0.153780 0
0.841252 0.137331 0
0.817098 0.117341 0
0.802311 0.093954 0
0.797014 0.069198 0
0.799885 0.045234 0
0.809106 0.023744 0
0.822814 0.005790 0
0.839381 -0.008245 0
0.857561 -0.018608 0
0.876476 -0.025961 0
0.895388 -0.031115 0
0.913292 -0.034537 0
0.929136 -0.036188 0
0.941914 -0.036079 0
0.951793 -0.034554 0
0.960021 -0.032115 0
0.967604 -0.029267 0
0.974678 -0.026462 0
0.980983 -0.024157 0
0.986500 -0.022553 0
0.991510 -0.021085 0
0.995438 -0.018935 0
0.998120 -0.016112 0
0.999859 -0.013344 0
1.000947 -0.010471 0
1.001373 -0.006938 0
1.001763 -0.004944 0
1.000000 -0.000304 0
0.999992 -0.000908 0
0.999941 -0.001576 0
1.000004 -0.002190 0
0.999939 -0.002576 0
0.999830 -0.003285 0
0.999746 -0.003697 0
0.999259 -0.005084 0
0.998478 -0.005835 0
0.997839 -0.007918 0
0.995889 -0.011076 0
0.994660 -0.015688 0
0.991119 -0.019003 0
0.987119 -0.026383 0
0.980694 -0.032256 0
0.970936 -0.045912 0
0.962448 -0.053316 0
0.933075 -0.071929 0
0.925831 -0.089555 0
0.832483 -0.107978 0
0.826567 -0.154305 0
0.495497 0.001382 0
0.368419 0.087605 0
0.000000 0.000000 0
0.000000 0.000000 0
0.000000 0.000000 0
0.000000 0.000000 0
-0.022723 0.198331 0
0.245063 0.290630 0
-0.062406 0.599373 0
-0.300365 0.784531 0
-0.351082 0.215034 0
-0.460157 -0.313904 0
-0.524159 -0.793000 0
-0.236435 -1.036728 0
-0.281804 -0.921263 0
0.069333 -0.633791 0
0.438161 -0.227760 0
0.734973 0.114889 0
0.940046 0.350814 0
1.052356 0.472854 0
1.135497 0.547977 0
1.208353 0.606427 0
1.248833 0.660840 0
1.249875 0.726651 0
1.249254 0.766374 0
1.242622 0.745695 0
1.207293 0.656463 0
1.186536 0.483345 0
1.160635 0.258445 0
1.145828 0.017340 0
1.132055 -0.252647 0
1.129702 -0.513871 0
1.103694 -0.687143 0
1.033431 -0.753908 0
0.970307 -0.730589 0
0.904320 -0.668501 0