# vtk DataFile Version 2.0
generated by CFD-lab course output (written by Tobias Neckel) 
ASCII

DATASET STRUCTURED_GRID
DIMENSIONS  101 21 1 
POINTS 2121 float

0.000000 0.000000 0
0.100000 0.000000 0
0.200000 0.000000 0
0.300000 0.000000 0
0.400000 0.000000 0
0.500000 0.000000 0
0.600000 0.000000 0
0.700000 0.000000 0
0.800000 0.000000 0
0.900000 0.000000 0
1.000000 0.000000 0
1.100000 0.000000 0
1.200000 0.000000 0
1.300000 0.000000 0
1.400000 0.000000 0
1.500000 0.000000 0
1.600000 0.000000 0
1.700000 0.000000 0
1.800000 0.000000 0
1.900000 0.000000 0
2.000000 0.000000 0
2.100000 0.000000 0
2.200000 0.000000 0
2.300000 0.000000 0
2.400000 0.000000 0
2.500000 0.000000 0
2.600000 0.000000 0
2.700000 0.000000 0
2.800000 0.000000 0
2.900000 0.000000 0
3.000000 0.000000 0
3.100000 0.000000 0
3.200000 0.000000 0
3.300000 0.000000 0
3.400000 0.000000 0
3.500000 0.000000 0
3.600000 0.000000 0
3.700000 0.000000 0
3.800000 0.000000 0
3.900000 0.000000 0
4.000000 0.000000 0
4.100000 0.000000 0
4.200000 0.000000 0
4.300000 0.000000 0
4.400000 0.000000 0
4.500000 0.000000 0
4.600000 0.000000 0
4.700000 0.000000 0
4.800000 0.000000 0
4.900000 0.000000 0
5.000000 0.000000 0
5.100000 0.000000 0
5.200000 0.000000 0
5.300000 0.000000 0
5.400000 0.000000 0
5.500000 0.000000 0
5.600000 0.000000 0
5.700000 0.000000 0
5.800000 0.000000 0
5.900000 0.000000 0
6.000000 0.000000 0
6.100000 0.000000 0
6.200000 0.000000 0
6.300000 0.000000 0
6.400000 0.000000 0
6.500000 0.000000 0
6.600000 0.000000 0
6.700000 0.000000 0
6.800000 0.000000 0
6.900000 0.000000 0
7.000000 0.000000 0
7.100000 0.000000 0
7.200000 0.000000 0
7.300000 0.000000 0
7.400000 0.000000 0
7.500000 0.000000 0
7.600000 0.000000 0
7.700000 0.000000 0
7.800000 0.000000 0
7.900000 0.000000 0
8.000000 0.000000 0
8.100000 0.000000 0
8.200000 0.000000 0
8.300000 0.000000 0
8.400000 0.000000 0
8.500000 0.000000 0
8.600000 0.000000 0
8.700000 0.000000 0
8.800000 0.000000 0
8.900000 0.000000 0
9.000000 0.000000 0
9.100000 0.000000 0
9.200000 0.000000 0
9.300000 0.000000 0
9.400000 0.000000 0
9.500000 0.000000 0
9.600000 0.000000 0
9.700000 0.000000 0
9.800000 0.000000 0
9.900000 0.000000 0
10.000000 0.000000 0
0.000000 0.100000 0
0.100000 0.100000 0
0.200000 0.100000 0
0.300000 0.100000 0
0.400000 0.100000 0
0.500000 0.100000 0
0.600000 0.100000 0
0.700000 0.100000 0
0.800000 0.100000 0
0.900000 0.100000 0
1.000000 0.100000 0
1.100000 0.100000 0
1.200000 0.100000 0
1.300000 0.100000 0
1.400000 0.100000 0
1.500000 0.100000 0
1.600000 0.100000 0
1.700000 0.100000 0
1.800000 0.100000 0
1.900000 0.100000 0
2.000000 0.100000 0
2.100000 0.100000 0
2.200000 0.100000 0
2.300000 0.100000 0
2.400000 0.100000 0
2.500000 0.100000 0
2.600000 0.100000 0
2.700000 0.100000 0
2.800000 0.100000 0
2.900000 0.100000 0
3.000000 0.100000 0
3.100000 0.100000 0
3.200000 0.100000 0
3.300000 0.100000 0
3.400000 0.100000 0
3.500000 0.100000 0
3.600000 0.100000 0
3.700000 0.100000 0
3.800000 0.100000 0
3.900000 0.100000 0
4.000000 0.100000 0
4.100000 0.100000 0
4.200000 0.100000 0
4.300000 0.100000 0
4.400000 0.100000 0
4.500000 0.100000 0
4.600000 0.100000 0
4.700000 0.100000 0
4.800000 0.100000 0
4.900000 0.100000 0
5.000000 0.100000 0
5.100000 0.100000 0
5.200000 0.100000 0
5.300000 0.100000 0
5.400000 0.100000 0
5.500000 0.100000 0
5.600000 0.100000 0
5.700000 0.100000 0
5.800000 0.100000 0
5.900000 0.100000 0
6.000000 0.100000 0
6.100000 0.100000 0
6.200000 0.100000 0
6.300000 0.100000 0
6.400000 0.100000 0
6.500000 0.100000 0
6.600000 0.100000 0
6.700000 0.100000 0
6.800000 0.100000 0
6.900000 0.100000 0
7.000000 0.100000 0
7.100000 0.100000 0
7.200000 0.100000 0
7.300000 0.100000 0
7.400000 0.100000 0
7.500000 0.100000 0
7.600000 0.100000 0
7.700000 0.100000 0
7.800000 0.100000 0
7.900000 0.100000 0
8.000000 0.100000 0
8.100000 0.100000 0
8.200000 0.100000 0
8.300000 0.100000 0
8.400000 0.100000 0
8.500000 0.100000 0
8.600000 0.100000 0
8.700000 0.100000 0
8.800000 0.100000 0
8.900000 0.100000 0
9.000000 0.100000 0
9.100000 0.100000 0
9.200000 0.100000 0
9.300000 0.100000 0
9.400000 0.100000 0
9.500000 0.100000 0
9.600000 0.100000 0
9.700000 0.100000 0
9.800000 0.100000 0
9.900000 0.100000 0
10.000000 0.100000 0
0.000000 0.200000 0
0.100000 0.200000 0
0.200000 0.200000 0
0.300000 0.200000 0
0.400000 0.200000 0
0.500000 0.200000 0
0.600000 0.200000 0
0.700000 0.200000 0
0.800000 0.200000 0
0.900000 0.200000 0
1.000000 0.200000 0
1.100000 0.200000 0
1.200000 0.200000 0
1.300000 0.200000 0
1.400000 0.200000 0
1.500000 0.200000 0
1.600000 0.200000 0
1.700000 0.200000 0
1.800000 0.200000 0
1.900000 0.200000 0
2.000000 0.200000 0
2.100000 0.200000 0
2.200000 0.200000 0
2.300000 0.200000 0
2.400000 0.200000 0
2.500000 0.200000 0
2.600000 0.200000 0
2.700000 0.200000 0
2.800000 0.200000 0
2.900000 0.200000 0
3.000000 0.200000 0
3.100000 0.200000 0
3.200000 0.200000 0
3.300000 0.200000 0
3.400000 0.200000 0
3.500000 0.200000 0
3.600000 0.200000 0
3.700000 0.200000 0
3.800000 0.200000 0
3.900000 0.200000 0
4.000000 0.200000 0
4.100000 0.200000 0
4.200000 0.200000 0
4.300000 0.200000 0
4.400000 0.200000 0
4.500000 0.200000 0
4.600000 0.200000 0
4.700000 0.200000 0
4.800000 0.200000 0
4.900000 0.200000 0
5.000000 0.200000 0
5.100000 0.200000 0
5.200000 0.200000 0
5.300000 0.200000 0
5.400000 0.200000 0
5.500000 0.200000 0
5.600000 0.200000 0
5.700000 0.200000 0
5.800000 0.200000 0
5.900000 0.200000 0
6.000000 0.200000 0
6.100000 0.200000 0
6.200000 0.200000 0
6.300000 0.200000 0
6.400000 0.200000 0
6.500000 0.200000 0
6.600000 0.200000 0
6.700000 0.200000 0
6.800000 0.200000 0
6.900000 0.200000 0
7.000000 0.200000 0
7.100000 0.200000 0
7.200000 0.200000 0
7.300000 0.200000 0
7.400000 0.200000 0
7.500000 0.200000 0
7.600000 0.200000 0
7.700000 0.200000 0
7.800000 0.200000 0
7.900000 0.200000 0
8.000000 0.200000 0
8.100000 0.200000 0
8.200000 0.200000 0
8.300000 0.200000 0
8.400000 0.200000 0
8.500000 0.200000 0
8.600000 0.200000 0
8.700000 0.200000 0
8.800000 0.200000 0
8.900000 0.200000 0
9.000000 0.200000 0
9.100000 0.200000 0
9.200000 0.200000 0
9.300000 0.200000 0
9.400000 0.200000 0
9.500000 0.200000 0
9.600000 0.200000 0
9.700000 0.200000 0
9.800000 0.200000 0
9.900000 0.200000 0
10.000000 0.200000 0
0.000000 0.300000 0
0.100000 0.300000 0
0.200000 0.300000 0
0.300000 0.300000 0
0.400000 0.300000 0
0.500000 0.300000 0
0.600000 0.300000 0
0.700000 0.300000 0
0.800000 0.300000 0
0.900000 0.300000 0
1.000000 0.300000 0
1.100000 0.300000 0
1.200000 0.300000 0
1.300000 0.300000 0
1.400000 0.300000 0
1.500000 0.300000 0
1.600000 0.300000 0
1.700000 0.300000 0
1.800000 0.300000 0
1.900000 0.300000 0
2.000000 0.300000 0
2.100000 0.300000 0
2.200000 0.300000 0
2.300000 0.300000 0
2.400000 0.300000 0
2.500000 0.300000 0
2.600000 0.300000 0
2.700000 0.300000 0
2.800000 0.300000 0
2.900000 0.300000 0
3.000000 0.300000 0
3.100000 0.300000 0
3.200000 0.300000 0
3.300000 0.300000 0
3.400000 0.300000 0
3.500000 0.300000 0
3.600000 0.300000 0
3.700000 0.300000 0
3.800000 0.300000 0
3.900000 0.300000 0
4.000000 0.300000 0
4.100000 0.300000 0
4.200000 0.300000 0
4.300000 0.300000 0
4.400000 0.300000 0
4.500000 0.300000 0
4.600000 0.300000 0
4.700000 0.300000 0
4.800000 0.300000 0
4.900000 0.300000 0
5.000000 0.300000 0
5.100000 0.300000 0
5.200000 0.300000 0
5.300000 0.300000 0
5.400000 0.300000 0
5.500000 0.300000 0
5.600000 0.300000 0
5.700000 0.300000 0
5.800000 0.300000 0
5.900000 0.300000 0
6.000000 0.300000 0
6.100000 0.300000 0
6.200000 0.300000 0
6.300000 0.300000 0
6.400000 0.300000 0
6.500000 0.300000 0
6.600000 0.300000 0
6.700000 0.300000 0
6.800000 0.300000 0
6.900000 0.300000 0
7.000000 0.300000 0
7.100000 0.300000 0
7.200000 0.300000 0
7.300000 0.300000 0
7.400000 0.300000 0
7.500000 0.300000 0
7.600000 0.300000 0
7.700000 0.300000 0
7.800000 0.300000 0
7.900000 0.300000 0
8.000000 0.300000 0
8.100000 0.300000 0
8.200000 0.300000 0
8.300000 0.300000 0
8.400000 0.300000 0
8.500000 0.300000 0
8.600000 0.300000 0
8.700000 0.300000 0
8.800000 0.300000 0
8.900000 0.300000 0
9.000000 0.300000 0
9.100000 0.300000 0
9.200000 0.300000 0
9.300000 0.300000 0
9.400000 0.300000 0
9.500000 0.300000 0
9.600000 0.300000 0
9.700000 0.300000 0
9.800000 0.300000 0
9.900000 0.300000 0
10.000000 0.300000 0
0.000000 0.400000 0
0.100000 0.400000 0
0.200000 0.400000 0
0.300000 0.400000 0
0.400000 0.400000 0
0.500000 0.400000 0
0.600000 0.400000 0
0.700000 0.400000 0
0.800000 0.400000 0
0.900000 0.400000 0
1.000000 0.400000 0
1.100000 0.400000 0
1.200000 0.400000 0
1.300000 0.400000 0
1.400000 0.400000 0
1.500000 0.400000 0
1.600000 0.400000 0
1.700000 0.400000 0
1.800000 0.400000 0
1.900000 0.400000 0
2.000000 0.400000 0
2.100000 0.400000 0
2.200000 0.400000 0
2.300000 0.400000 0
2.400000 0.400000 0
2.500000 0.400000 0
2.600000 0.400000 0
2.700000 0.400000 0
2.800000 0.400000 0
2.900000 0.400000 0
3.000000 0.400000 0
3.100000 0.400000 0
3.200000 0.400000 0
3.300000 0.400000 0
3.400000 0.400000 0
3.500000 0.400000 0
3.600000 0.400000 0
3.700000 0.400000 0
3.800000 0.400000 0
3.900000 0.400000 0
4.000000 0.400000 0
4.100000 0.400000 0
4.200000 0.400000 0
4.300000 0.400000 0
4.400000 0.400000 0
4.500000 0.400000 0
4.600000 0.400000 0
4.700000 0.400000 0
4.800000 0.400000 0
4.900000 0.400000 0
5.000000 0.400000 0
5.100000 0.400000 0
5.200000 0.400000 0
5.300000 0.400000 0
5.400000 0.400000 0
5.500000 0.400000 0
5.600000 0.400000 0
5.700000 0.400000 0
5.800000 0.400000 0
5.900000 0.400000 0
6.000000 0.400000 0
6.100000 0.400000 0
6.200000 0.400000 0
6.300000 0.400000 0
6.400000 0.400000 0
6.500000 0.400000 0
6.600000 0.400000 0
6.700000 0.400000 0
6.800000 0.400000 0
6.900000 0.400000 0
7.000000 0.400000 0
7.100000 0.400000 0
7.200000 0.400000 0
7.300000 0.400000 0
7.400000 0.400000 0
7.500000 0.400000 0
7.600000 0.400000 0
7.700000 0.400000 0
7.800000 0.400000 0
7.900000 0.400000 0
8.000000 0.400000 0
8.100000 0.400000 0
8.200000 0.400000 0
8.300000 0.400000 0
8.400000 0.400000 0
8.500000 0.400000 0
8.600000 0.400000 0
[...]
POINT_DATA 2121 

VECTORS velocity float
0.500000 0.000000 0
0.000003 0.000000 0
0.000001 0.000000 0
-0.000012 0.000000 0
-0.000019 0.000000 0
-0.000043 0.000000 0
-0.000098 0.000000 0
-0.000173 0.000000 0
-0.000140 0.000000 0
-0.000197 0.000000 0
-0.000251 0.000000 0
-0.000313 0.000000 0
-0.000384 0.000000 0
-0.000462 0.000000 0
-0.000546 0.000000 0
-0.000639 0.000000 0
-0.000740 0.000000 0
-0.000852 0.000000 0
-0.000974 0.000000 0
-0.001110 0.000000 0
-0.001262 0.000000 0
-0.001429 0.000000 0
-0.001628 0.000000 0
-0.001808 0.000000 0
-0.001614 0.000000 0
-0.001530 0.000000 0
-0.001297 0.000000 0
-0.000923 0.000000 0
-0.000350 0.000000 0
0.000556 0.000000 0
0.001808 0.000000 0
0.003234 0.000000 0
0.004539 0.000000 0
0.005802 0.000000 0
0.006725 0.000000 0
0.006686 0.000000 0
0.006321 0.000000 0
0.014430 0.000000 0
0.004398 0.000000 0
0.012987 0.000000 0
0.023414 0.000000 0
0.006538 0.000000 0
-0.007347 0.000000 0
-0.028525 0.000000 0
-0.040198 0.000000 0
-0.031920 0.000000 0
-0.034762 0.000000 0
-0.033324 0.000000 0
-0.025927 0.000000 0
-0.011510 0.000000 0
0.007367 0.000000 0
0.022396 0.000000 0
0.028826 0.000000 0
0.028170 0.000000 0
0.024666 0.000000 0
0.020901 0.000000 0
0.009244 0.000000 0
0.001607 0.000000 0
0.008635 0.000000 0
0.006902 0.000000 0
0.001073 0.000000 0
-0.003549 0.000000 0
-0.006698 0.000000 0
-0.009187 0.000000 0
-0.010170 0.000000 0
-0.006975 0.000000 0
-0.006650 0.000000 0
-0.005981 0.000000 0
-0.005227 0.000000 0
-0.004452 0.000000 0
-0.003807 0.000000 0
-0.003358 0.000000 0
-0.002941 0.000000 0
-0.001973 0.000000 0
0.000016 0.000000 0
0.001759 0.000000 0
0.000990 0.000000 0
-0.001779 0.000000 0
-0.002233 0.000000 0
0.005014 0.000000 0
0.009502 0.000000 0
0.008303 0.000000 0
0.005178 0.000000 0
0.002464 0.000000 0
0.000859 0.000000 0
0.000161 0.000000 0
-0.000092 0.000000 0
-0.000280 0.000000 0
-0.000598 0.000000 0
-0.001072 0.000000 0
-0.001499 0.000000 0
-0.001440 0.000000 0
-0.000654 0.000000 0
0.000383 0.000000 0
0.000778 0.000000 0
-0.000635 0.000000 0
0.000962 0.000000 0
0.000401 0.000000 0
-0.001304 0.000000 0
-0.003731 0.000000 0
-0.004202 0.000000 0
1.000000 0.000351 0
0.999907 0.000866 0
0.999835 0.000978 0
0.999922 0.000790 0
1.000299 0.000482 0
1.001098 -0.000031 0
1.002502 -0.000981 0
1.004706 -0.002086 0
1.007828 -0.003001 0
1.012018 -0.004106 0
1.017554 -0.005665 0
1.024772 -0.007634 0
1.034083 -0.010093 0
1.046000 -0.013143 0
1.061161 -0.016912 0
1.080351 -0.021531 0
1.104507 -0.027093 0
1.134670 -0.033583 0
1.171856 -0.040764 0
1.216787 -0.048031 0
1.269478 -0.054235 0
1.328226 -0.057799 0
1.389909 -0.057150 0
1.447968 -0.050844 0
1.495331 -0.039565 0
1.529422 -0.026440 0
1.549734 -0.013685 0
1.557277 -0.002444 0
1.554764 0.006904 0
1.545104 0.016082 0
1.528145 0.026734 0
1.499689 0.039674 0
1.456282 0.054558 0
1.397461 0.069974 0
1.323402 0.083260 0
1.236552 0.088599 0
1.139451 0.113411 0
1.035282 0.148313 0
0.944177 0.092929 0
0.690796 0.106146 0
0.399055 0.199162 0
0.260183 0.149714 0
0.202809 0.006858 0
0.218028 -0.172996 0
0.436557 -0.292234 0
0.793262 -0.287146 0
1.110919 -0.263017 0
1.347357 -0.241948 0
1.547356 -0.184604 0
1.694086 -0.091135 0
1.756377 0.026618 0
1.716406 0.130481 0
1.599930 0.189245 0
1.433757 0.203121 0
1.253962 0.194145 0
1.111981 0.165385 0
1.048638 0.104934 0
0.932961 0.064543 0
0.774649 0.071689 0
0.687555 0.055681 0
0.674089 0.002858 0
0.710940 -0.043817 0
0.784839 -0.076939 0
0.877692 -0.099289 0
0.965107 -0.100774 0
1.045218 -0.084648 0
1.117656 -0.070917 0
1.183650 -0.061951 0
1.240803 -0.052395 0
1.286631 -0.042067 0
1.320287 -0.031874 0
1.342662 -0.022693 0
1.354830 -0.013949 0
1.357185 -0.002820 0
1.350084 0.011681 0
1.332784 0.021448 0
1.301607 0.013929 0
1.248954 -0.005681 0
1.178078 -0.006299 0
1.128920 0.026556 0
1.122817 0.050222 0
1.127618 0.040976 0
1.144141 0.021032 0
1.168109 0.004073 0
1.192134 -0.005248 0
1.211143 -0.008113 0
1.223336 -0.007151 0
1.228461 -0.004509 0
1.227272 -0.001621 0
1.221235 0.000902 0
1.212566 0.004001 0
1.201958 0.010145 0
1.182834 0.020011 0
1.142861 0.029476 0
1.086138 0.029221 0
1.059261 0.022126 0
1.054662 0.020696 0
1.025270 0.015237 0
1.015153 0.000849 0
1.028581 -0.006964 0
1.035805 -0.007935 0
1.000000 0.000084 0
1.000439 0.000153 0
1.001213 -0.000024 0
1.002229 -0.000474 0
1.003557 -0.001187 0
1.005344 -0.002215 0
1.007633 -0.003620 0
1.010381 -0.005339 0
1.013930 -0.007324 0
1.018628 -0.009738 0
1.024575 -0.012766 0
1.032039 -0.016540 0
1.041373 -0.021239 0
1.053042 -0.027088 0
1.067648 -0.034362 0
1.085971 -0.043357 0
1.109012 -0.054328 0
1.138011 -0.067357 0
1.174382 -0.082126 0
1.219560 -0.097630 0
1.274673 -0.111447 0
1.338417 -0.120441 0
1.409920 -0.119751 0
1.474029 -0.105429 0
1.524424 -0.081461 0
1.560117 -0.054412 0
1.580406 -0.027862 0
1.585733 -0.005037 0
1.580407 0.012166 0
1.571616 0.026613 0
1.562204 0.045409 0
1.544531 0.071857 0
1.508663 0.102223 0
1.454254 0.132875 0
1.382040 0.160903 0
1.292933 0.183946 0
1.187744 0.201266 0
1.096440 0.195270 0
0.998297 0.344482 0
0.806231 0.545118 0
0.760357 0.430609 0
0.708984 0.196242 0
0.395767 0.042151 0
0.261083 -0.233752 0
0.277202 -0.575238 0
0.513864 -0.674366 0
0.870359 -0.554099 0
1.115621 -0.436439 0
1.261524 -0.346732 0
1.374051 -0.209024 0
1.455227 -0.022321 0
1.497614 0.156446 0
1.481075 0.282649 0
1.404674 0.345969 0
1.292550 0.321776 0
1.186309 0.205324 0
1.061836 0.179021 0
0.869514 0.273991 0
0.741078 0.245408 0
0.727080 0.100561 0
0.753290 -0.023384 0
0.773499 -0.110749 0
0.811105 -0.166752 0
0.888342 -0.180269 0
0.975780 -0.167528 0
1.053353 -0.152551 0
1.126751 -0.138436 0
1.198717 -0.123152 0
1.262262 -0.102987 0
1.311187 -0.079491 0
1.342168 -0.056039 0
1.355669 -0.034552 0
1.353600 -0.014532 0
1.339588 0.004735 0
1.317719 0.024390 0
1.281468 0.048466 0
1.220229 0.083818 0
1.133069 0.123517 0
1.039328 0.120022 0
0.989547 0.055249 0
1.009964 0.001290 0
1.065210 -0.021335 0
1.132465 -0.040502 0
1.195805 -0.048003 0
1.245854 -0.043043 0
1.281096 -0.031210 0
1.302968 -0.017325 0
1.310222 -0.003941 0
1.300891 0.007222 0
1.275643 0.014702 0
1.242404 0.019274 0
1.206773 0.029731 0
1.159258 0.059096 0
1.102207 0.096696 0
1.068019 0.083600 0
0.994171 0.031477 0
0.857388 0.033993 0
0.786131 0.039511 0
0.800115 -0.003309 0
0.866702 -0.020649 0
0.877386 -0.015896 0
1.000000 -0.000093 0
1.000295 -0.000355 0
1.000867 -0.000817 0
1.001692 -0.001559 0
1.002813 -0.002638 0
1.004323 -0.004112 0
1.006298 -0.006024 0
1.008797 -0.008387 0
1.011992 -0.011253 0
1.016089 -0.014756 0
1.021254 -0.019080 0
1.027704 -0.024437 0
1.035734 -0.031100 0
1.045740 -0.039421 0
1.058255 -0.049845 0
1.074028 -0.062899 0
1.094109 -0.079137 0
1.120035 -0.098958 0
1.153740 -0.122316 0
1.197935 -0.148325 0
1.255945 -0.173097 0
1.327375 -0.193049 0
1.419683 -0.192766 0
1.495995 -0.165351 0
1.550096 -0.125657 0
1.586454 -0.082425 0
1.605739 -0.039303 0
1.604660 -0.002448 0
1.588659 0.021019 0
1.575519 0.034282 0
1.576071 0.053816 0
1.576460 0.093213 0
1.551643 0.144834 0
1.498223 0.196596 0
1.427200 0.244578 0
1.343987 0.282894 0
1.248819 0.309904 0
1.126009 0.337758 0
0.967176 0.383137 0
1.052194 0.344085 0
1.185886 0.296407 0
0.916976 0.514303 0
0.745690 0.454759 0
0.784696 -0.054432 0
0.713677 -0.545016 0
0.583781 -0.880305 0
0.675561 -0.864776 0
0.907959 -0.633113 0
1.058659 -0.443033 0
1.124949 -0.284837 0
1.168481 -0.096944 0
1.233403 0.104633 0
1.273776 0.282185 0
1.270884 0.391647 0
1.229254 0.412511 0
1.123733 0.396100 0
0.873329 0.421730 0
0.735497 0.385303 0
0.791337 0.214124 0
0.813259 0.043470 0
0.714102 -0.043561 0
0.598632 -0.101632 0
0.568096 -0.191783 0
0.645544 -0.263965 0
0.788582 -0.265787 0
0.933159 -0.235621 0
1.046844 -0.216284 0
1.128250 -0.197465 0
1.203771 -0.164867 0
1.266660 -0.121976 0
1.308753 -0.076360 0
1.328971 -0.034129 0
1.326158 0.002128 0
1.299074 0.033056 0
1.252659 0.069795 0
1.187395 0.118934 0
1.124616 0.162323 0
1.097175 0.175216 0
1.098317 0.137218 0
1.105291 0.055916 0
1.107419 -0.025445 0
1.131933 -0.081529 0
1.170390 -0.109567 0
1.209857 -0.109319 0
1.238574 -0.090540 0
1.260637 -0.065228 0
1.283868 -0.036279 0
1.304525 -0.002432 0
1.314983 0.032958 0
1.296556 0.059389 0
1.250557 0.072872 0
1.211051 0.093293 0
1.204409 0.124580 0
1.182601 0.120717 0
1.072010 0.137260 0
0.920327 0.232761 0
0.833746 0.228738 0
0.814621 0.072513 0
0.772452 -0.079719 0
0.746855 -0.084231 0
0.742616 -0.030357 0
1.000000 -0.000217 0
1.000196 -0.000723 0
1.000607 -0.001425 0
1.001230 -0.002424 0
1.002084 -0.003823 0
1.003280 -0.005706 0
1.004926 -0.008099 0
1.007037 -0.011037 0
1.009708 -0.014621 0
1.013071 -0.019004 0
1.017265 -0.024384 0
1.022440 -0.031025 0
1.028813 -0.039279 0
1.036673 -0.049614 0
1.046422 -0.062654 0
1.058684 -0.079214 0
1.074392 -0.100340 0
1.095473 -0.126994 0
1.123917 -0.160029 0
1.164664 -0.199839 0
1.223318 -0.240891 0
1.304595 -0.284182 0
1.445704 -0.288375 0
1.539009 -0.235846 0
1.588589 -0.171925 0
1.620308 -0.110057 0
1.640213 -0.046071 0
1.631638 0.012041 0
1.591676 0.041305 0
1.562346 0.039198 0
1.583513 0.044465 0
1.627935 0.096283 0
1.624054 0.180459 0
1.559865 0.257316 0
1.461894 0.315138 0
1.359261 0.362327 0
1.257191 0.419242 0
1.152624 0.476911 0
1.096051 0.418296 0
1.118273 0.326407 0
0.842226 0.565827 0
0.633953 0.636438 0
0.869179 0.174431 0
1.032189 -0.201740 0
1.046223 -0.374324 0
0.870458 -0.636250 0
0.679872 -0.878277 0
0.708936 -0.819538 0
0.854823 -0.563722 0
0.955497 -0.318845 0
1.009274 -0.130773 0
1.042741 0.051152 0
1.061152 0.245168 0
1.088389 0.390491 0
1.133156 0.468929 0
1.083884 0.561251 0
0.904472 0.567259 0
0.802310 0.355985 0
0.755208 0.167646 0
0.660904 0.177797 0
0.526366 0.191244 0
0.458169 0.035256 0
0.449412 -0.213664 0
0.499331 -0.400756 0
0.611380 -0.455145 0
0.756327 -0.410814 0
0.899721 -0.333529 0
1.014777 -0.280083 0
1.094019 -0.241401 0
1.159827 -0.184476 0
1.204574 -0.118353 0
1.234303 -0.051962 0
1.236349 0.015360 0
1.209506 0.078230 0
1.213237 0.136064 0
1.188214 0.176504 0
1.091114 0.174034 0
1.031755 0.149812 0
1.058809 0.111902 0
1.090739 0.046142 0
1.071201 -0.025355 0
1.038848 -0.084309 0
1.049698 -0.118428 0
1.085456 -0.116189 0
1.083959 -0.093825 0
1.038899 -0.076504 0
1.001130 -0.061212 0
1.013300 -0.035056 0
1.069340 0.015191 0
1.117793 0.079129 0
1.129031 0.104782 0
1.106212 0.075881 0
1.053795 0.087549 0
0.976016 0.229098 0
0.864501 0.345878 0
0.815261 0.269746 0
0.843985 0.139703 0
0.808033 0.100809 0
0.728753 0.064461 0
0.649837 0.009192 0
0.636507 -0.009025 0
1.000000 -0.000297 0
1.000100 -0.000971 0
1.000368 -0.001855 0
1.000797 -0.003040 0
1.001300 -0.004693 0
1.002099 -0.006959 0
1.003422 -0.009786 0
1.005079 -0.013174 0
1.007115 -0.017291 0
1.009625 -0.022317 0
1.012708 -0.028453 0
1.016394 -0.035989 0
1.020813 -0.045337 0
1.026110 -0.057035 0
1.032446 -0.071861 0
1.040230 -0.090873 0
1.049636 -0.115931 0
1.063761 -0.148486 0
1.082134 -0.191511 0
1.114896 -0.247730 0
1.161865 -0.313031 0
1.256253 -0.415439 0
1.505287 -0.427184 0
1.580968 -0.308241 0
1.583115 -0.206959 0
1.587021 -0.134052 0
1.607994 -0.050636 0
1.617709 0.046088 0
1.516211 0.090308 0
1.445538 0.042441 0
1.490968 -0.011776 0
1.649271 0.052670 0
1.716418 0.212903 0
1.679483 0.358754 0
1.561080 0.445182 0
1.415471 0.487595 0
1.279885 0.516539 0
1.204307 0.498898 0
1.212002 0.417487 0
1.001207 0.597909 0
0.704388 0.780726 0
0.854800 0.487349 0
0.934369 0.056522 0
0.821911 -0.231476 0
0.768183 -0.383285 0
0.772880 -0.513953 0
0.685907 -0.703254 0
0.603658 -0.808063 0
0.654224 -0.689593 0
0.767122 -0.439287 0
0.859072 -0.184187 0
0.910572 0.052756 0
0.959108 0.236538 0
1.013058 0.319645 0
1.022559 0.417019 0
0.950606 0.624785 0
0.910129 0.703305 0
0.876604 0.534568 0
0.754756 0.355532 0
0.640591 0.272312 0
0.679286 0.159174 0
0.784237 -0.024677 0
0.825163 -0.232945 0
0.783548 -0.425934 0
0.753445 -0.522784 0
0.748227 -0.523965 0
0.783998 -0.474737 0
0.880800 -0.391766 0
0.994926 -0.309920 0
1.066101 -0.232535 0
1.095193 -0.150841 0
1.131613 -0.065909 0
1.184314 0.026921 0
1.158464 0.056164 0
1.052525 0.091082 0
0.999266 0.241052 0
0.980271 0.318779 0
0.943008 0.207517 0
0.909266 0.078229 0
0.910736 0.043520 0
0.940795 0.026444 0
0.964227 -0.060029 0
0.958256 -0.156177 0
0.943747 -0.143582 0
0.923978 -0.043984 0
0.871274 0.017601 0
0.791604 -0.010679 0
0.740894 -0.070640 0
0.757896 -0.071532 0
0.820525 -0.000298 0
0.851514 0.084456 0
0.781253 0.168532 0
0.633607 0.254780 0
0.543275 0.310014 0
0.598086 0.298019 0
0.654196 0.253282 0
0.589597 0.235972 0
0.516128 0.187750 0
0.516548 0.078482 0
0.533032 0.008019 0
0.532398 -0.005416 0
1.000000 -0.000324 0
1.000035 -0.001099 0
1.000112 -0.002125 0
1.000477 -0.003361 0
1.000539 -0.005130 0
1.000765 -0.007833 0
1.001928 -0.011084 0
1.003053 -0.014735 0
1.004368 -0.019172 0
1.005944 -0.024601 0
1.007894 -0.031158 0
1.009942 -0.039134 0
1.012228 -0.048999 0
1.014792 -0.061251 0
1.017308 -0.076778 0
1.020322 -0.096408 0
1.020847 -0.123876 0
1.027493 -0.159496 0
1.028897 -0.211168 0
1.050225 -0.279575 0
1.057295 -0.382252 0
1.170556 -0.627607 0
1.511233 -0.613094 0
1.413656 -0.313678 0
1.290628 -0.177980 0
1.208203 -0.134938 0
1.189852 -0.076762 0
1.301077 0.103821 0
1.322722 0.213474 0
0.964381 0.064438 0
0.939242 -0.159270 0
1.414432 -0.129168 0
1.592351 0.150244 0
1.664696 0.412653 0
1.631128 0.579150 0
1.514769 0.643521 0
1.364081 0.630405 0
1.250961 0.544793 0
1.100736 0.621396 0
0.818187 0.834021 0
0.856434 0.712233 0
0.959065 0.406457 0
0.903031 0.207320 0
0.800088 -0.035554 0
0.710826 -0.325293 0
0.668443 -0.553974 0
0.640558 -0.709055 0
0.588108 -0.787854 0
0.576524 -0.727185 0
0.640364 -0.523691 0
0.727710 -0.274222 0
0.800904 -0.048883 0
0.866217 0.142684 0
0.894391 0.327042 0
0.849582 0.531383 0
0.832201 0.673682 0
0.939072 0.641263 0
1.022542 0.511359 0
0.982127 0.403661 0
0.922915 0.253268 0
0.950127 0.047598 0
1.014023 -0.110621 0
1.042666 -0.212976 0
0.978603 -0.329040 0
0.887284 -0.419825 0
0.832454 -0.441369 0
0.773950 -0.466105 0
0.738959 -0.491014 0
0.805245 -0.426705 0
0.930536 -0.284747 0
1.025116 -0.183870 0
1.021014 -0.141087 0
0.964617 -0.011496 0
0.910191 0.210014 0
0.853456 0.295257 0
0.859508 0.248753 0
0.896156 0.230288 0
0.885611 0.220814 0
0.827250 0.144171 0
0.788018 0.014610 0
0.808375 -0.078849 0
0.846633 -0.101772 0
0.826096 -0.097949 0
0.763654 -0.081911 0
0.737109 -0.021353 0
0.750304 0.055870 0
0.749432 0.069169 0
0.708095 -0.001346 0
0.645525 -0.064437 0
0.618307 -0.014485 0
0.601389 0.144058 0
0.562430 0.293792 0
0.576771 0.325532 0
0.650250 0.264624 0
0.682178 0.234964 0
0.622073 0.278241 0
0.561971 0.277776 0
0.561624 0.173863 0
0.558276 0.047563 0
0.568763 -0.006652 0
0.571486 -0.007759 0
1.000000 -0.000338 0
1.000052 -0.001091 0
0.999933 -0.002301 0
1.000148 -0.003473 0
1.000109 -0.004986 0
0.999880 -0.008352 0
1.000211 -0.012078 0
1.000736 -0.015619 0
1.001482 -0.020187 0
1.002072 -0.025848 0
1.003194 -0.032456 0
1.003510 -0.040327 0
1.003643 -0.050191 0
1.004533 -0.062120 0
1.003302 -0.077395 0
0.999907 -0.094417 0
0.995906 -0.123107 0
0.989994 -0.156540 0
0.980850 -0.214247 0
0.974473 -0.276133 0
0.947828 -0.433367 0
1.019790 -0.869381 0
0.738173 -0.582649 0
0.001383 0.000000 0
0.002103 0.000000 0
0.439279 -0.031770 0
0.366353 -0.143513 0
0.250808 -0.086785 0
0.498566 0.427002 0
0.045218 0.425919 0
0.214841 -0.461828 0
0.662123 -0.600440 0
1.154678 -0.037363 0
1.354408 0.319977 0
1.407803 0.595108 0
1.394513 0.754640 0
1.329003 0.780346 0
1.199327 0.762243 0
0.952893 0.850261 0
0.861863 0.842211 0
0.948725 0.639848 0
0.900647 0.440752 0
0.844048 0.215500 0
0.848264 -0.039271 0
0.828099 -0.251639 0
0.761301 -0.443685 0
0.680722 -0.622919 0
0.607254 -0.744027 0
0.568381 -0.741847 0
0.593651 -0.590471 0
0.667282 -0.344725 0
0.738663 -0.085750 0
0.790618 0.143053 0
0.826789 0.336283 0
0.870446 0.479210 0
0.977102 0.535296 0
1.090617 0.512966 0
1.092933 0.491515 0
1.028644 0.455160 0
0.970347 0.304313 0
0.899874 0.068067 0
0.888027 -0.117217 0
0.793828 -0.197526 0
0.720233 -0.270553 0
0.665661 -0.376636 0
0.700304 -0.410633 0
0.784001 -0.381244 0
0.771184 -0.423064 0
0.682721 -0.501501 0
0.691745 -0.452410 0
0.799285 -0.241322 0
0.857331 -0.005414 0
0.833498 0.137740 0
0.854205 0.167321 0
0.918090 0.141760 0
0.882646 0.198348 0
0.813034 0.292672 0
0.797352 0.276419 0
0.838664 0.175819 0
0.864327 0.062392 0
0.827177 -0.032173 0
0.747307 -0.077751 0
0.665155 -0.073198 0
0.596800 -0.054594 0
0.567890 -0.030634 0
0.605317 0.005279 0
0.665411 0.031532 0
0.660791 0.033270 0
0.583012 0.018259 0
0.549326 0.043842 0
0.605654 0.140338 0
0.717301 0.193156 0
0.802789 0.166965 0
0.780201 0.204613 0
0.666984 0.326203 0
0.608130 0.373496 0
0.672555 0.296428 0
0.781772 0.191452 0
0.846384 0.071349 0
0.863840 -0.005184 0
0.869747 -0.010283 0
1.000000 -0.000383 0
0.999989 -0.001041 0
1.000023 -0.002226 0
0.999749 -0.003542 0
0.999848 -0.004866 0
0.999594 -0.007939 0
0.999340 -0.011944 0
0.998981 -0.016010 0
0.999080 -0.020512 0
0.998168 -0.026317 0
0.998791 -0.032600 0
0.996876 -0.039587 0
0.998075 -0.050026 0
0.993002 -0.060915 0
0.993232 -0.072158 0
0.981962 -0.089017 0
0.983955 -0.113967 0
0.952424 -0.144445 0
0.957553 -0.195652 0
0.877948 -0.246558 0
0.885031 -0.427574 0
0.637868 -0.505596 0
0.000000 0.002772 0
-0.614369 0.211831 0
-0.510030 0.000000 0
0.000000 0.000000 0
-0.044119 0.099358 0
-0.137554 -0.028395 0
-0.171546 0.419061 0
-0.038204 0.348162 0
0.062023 -0.776175 0
-0.021919 -1.069006 0
0.475590 -0.542043 0
0.822147 0.159527 0
1.025595 0.539044 0
1.142087 0.722321 0
1.165980 0.825590 0
1.069144 0.920903 0
0.977904 0.958859 0
1.038027 0.838188 0
1.005497 0.673449 0
0.865907 0.511134 0
0.788691 0.259703 0
0.731228 -0.019604 0
0.701644 -0.238329 0
0.714825 -0.406596 0
0.723935 -0.555006 0
0.686703 -0.675511 0
0.631213 -0.713580 0
0.619273 -0.622589 0
0.658442 -0.419231 0
0.730311 -0.172217 0
0.820348 0.054560 0
0.906950 0.247217 0
0.980569 0.381071 0
1.026901 0.453512 0
1.019435 0.525433 0
0.977891 0.573334 0
0.981277 0.526248 0
1.050979 0.382039 0
1.035758 0.129918 0
0.724346 -0.004576 0
0.527711 -0.045183 0
0.550032 -0.200874 0
0.577748 -0.399898 0
0.552798 -0.559711 0
0.642101 -0.536987 0
0.798512 -0.389737 0
0.794352 -0.347270 0
0.636242 -0.401315 0
0.573703 -0.349460 0
0.648309 -0.175304 0
0.746899 -0.008375 0
0.805386 0.125418 0
0.782910 0.266813 0
0.723556 0.353805 0
0.763507 0.315578 0
0.868550 0.195180 0
0.946787 0.077194 0
0.963663 0.026095 0
0.913110 0.038169 0
0.805527 0.060250 0
0.683401 0.052558 0
0.580494 0.015355 0
0.510077 -0.029869 0
0.497595 -0.041649 0
0.545427 0.013698 0
0.608177 0.081057 0
0.634686 0.047033 0
0.584425 -0.037122 0
0.547866 -0.023912 0
0.599772 0.096663 0
0.601064 0.262639 0
0.493855 0.400435 0
0.425395 0.407042 0
0.507052 0.272678 0
0.679183 0.104142 0
0.859483 0.000042 0
1.012666 -0.034497 0
1.061292 -0.030008 0
1.070623 -0.014100 0
1.000000 -0.000334 0
0.999878 -0.001123 0
1.000108 -0.002065 0
0.999660 -0.003302 0
0.999623 -0.004835 0
0.999724 -0.007848 0
0.998553 -0.011469 0
0.998397 -0.015364 0
0.997541 -0.019378 0
0.996775 -0.025563 0
0.993976 -0.031168 0
0.994706 -0.039616 0
0.991414 -0.046321 0
0.988409 -0.057282 0
0.978971 -0.066360 0
0.977310 -0.085144 0
0.960132 -0.093573 0
0.948502 -0.130144 0
0.907816 -0.139777 0
0.858151 -0.203615 0
0.791073 -0.193292 0
0.470107 -0.063041 0
0.368736 -0.023468 0
0.000000 0.000000 0
0.000000 0.000000 0
0.000000 0.000000 0
0.000000 0.000000 0
0.117667 0.058950 0
-0.020965 0.327650 0
0.389453 0.192348 0
0.125871 -0.478115 0
-0.199726 -1.014009 0
-0.173691 -0.881429 0
0.318089 -0.230029 0
0.669886 0.275167 0
0.854998 0.614255 0
0.919864 0.853289 0
0.957973 0.950319 0
1.042646 0.881378 0
1.057075 0.814618 0
0.915980 0.811968 0
0.823358 0.657559 0
0.786895 0.350180 0
0.733742 0.047777 0
0.696193 -0.235235 0
0.707870 -0.465975 0
0.761408 -0.594795 0
0.800943 -0.651303 0
0.765031 -0.674415 0
0.718189 -0.617698 0
0.724713 -0.455761 0
0.761064 -0.247653 0
0.803944 -0.033583 0
0.846012 0.176065 0
0.885203 0.359261 0
0.903612 0.496432 0
0.911750 0.561978 0
0.958677 0.529674 0
1.046732 0.382073 0
1.109613 0.249834 0
0.979985 0.394700 0