# vtk DataFile Version 2.0
generated by CFD-lab course output (written by Tobias Neckel) 
ASCII

DATASET STRUCTURED_GRID
DIMENSIONS  101 21 1 
POINTS 2121 float

0.000000 0.000000 0
0.100000 0.000000 0
0.200000 0.000000 0
0.300000 0.000000 0
0.400000 0.000000 0
0.500000 0.000000 0
0.600000 0.000000 0
0.700000 0.000000 0
0.800000 0.000000 0
0.900000 0.000000 0
1.000000 0.000000 0
1.100000 0.000000 0
1.200000 0.000000 0
1.300000 0.000000 0
1.400000 0.000000 0
1.500000 0.000000 0
1.600000 0.000000 0
1.700000 0.000000 0
1.800000 0.000000 0
1.900000 0.000000 0
2.000000 0.000000 0
2.100000 0.000000 0
2.200000 0.000000 0
2.300000 0.000000 0
2.400000 0.000000 0
2.500000 0.000000 0
2.600000 0.000000 0
2.700000 0.000000 0
2.800000 0.000000 0
2.900000 0.000000 0
3.000000 0.000000 0
3.100000 0.000000 0
3.200000 0.000000 0
3.300000 0.000000 0
3.400000 0.000000 0
3.500000 0.000000 0
3.600000 0.000000 0
3.700000 0.000000 0
3.800000 0.000000 0
3.900000 0.000000 0
4.000000 0.000000 0
4.100000 0.000000 0
4.200000 0.000000 0
4.300000 0.000000 0
4.400000 0.000000 0
4.500000 0.000000 0
4.600000 0.000000 0
4.700000 0.000000 0
4.800000 0.000000 0
4.900000 0.000000 0
5.000000 0.000000 0
5.100000 0.000000 0
5.200000 0.000000 0
5.300000 0.000000 0
5.400000 0.000000 0
5.500000 0.000000 0
5.600000 0.000000 0
5.700000 0.000000 0
5.800000 0.000000 0
5.900000 0.000000 0
6.000000 0.000000 0
6.100000 0.000000 0
6.200000 0.000000 0
6.300000 0.000000 0
6.400000 0.000000 0
6.500000 0.000000 0
6.600000 0.000000 0
6.700000 0.000000 0
6.800000 0.000000 0
6.900000 0.000000 0
7.000000 0.000000 0
7.100000 0.000000 0
7.200000 0.000000 0
7.300000 0.000000 0
7.400000 0.000000 0
7.500000 0.000000 0
7.600000 0.000000 0
7.700000 0.000000 0
7.800000 0.000000 0
7.900000 0.000000 0
8.000000 0.000000 0
8.100000 0.000000 0
8.200000 0.000000 0
8.300000 0.000000 0
8.400000 0.000000 0
8.500000 0.000000 0
8.600000 0.000000 0
8.700000 0.000000 0
8.800000 0.000000 0
8.900000 0.000000 0
9.000000 0.000000 0
9.100000 0.000000 0
9.200000 0.000000 0
9.300000 0.000000 0
9.400000 0.000000 0
9.500000 0.000000 0
9.600000 0.000000 0
9.700000 0.000000 0
9.800000 0.000000 0
9.900000 0.000000 0
10.000000 0.000000 0
0.000000 0.100000 0
0.100000 0.100000 0
0.200000 0.100000 0
0.300000 0.100000 0
0.400000 0.100000 0
0.500000 0.100000 0
0.600000 0.100000 0
0.700000 0.100000 0
0.800000 0.100000 0
0.900000 0.100000 0
1.000000 0.100000 0
1.100000 0.100000 0
1.200000 0.100000 0
1.300000 0.100000 0
1.400000 0.100000 0
1.500000 0.100000 0
1.600000 0.100000 0
1.700000 0.100000 0
1.800000 0.100000 0
1.900000 0.100000 0
2.000000 0.100000 0
2.100000 0.100000 0
2.200000 0.100000 0
2.300000 0.100000 0
2.400000 0.100000 0
2.500000 0.100000 0
2.600000 0.100000 0
2.700000 0.100000 0
2.800000 0.100000 0
2.900000 0.100000 0
3.000000 0.100000 0
3.100000 0.100000 0
3.200000 0.100000 0
3.300000 0.100000 0
3.400000 0.100000 0
3.500000 0.100000 0
3.600000 0.100000 0
3.700000 0.100000 0
3.800000 0.100000 0
3.900000 0.100000 0
4.000000 0.100000 0
4.100000 0.100000 0
4.200000 0.100000 0
4.300000 0.100000 0
4.400000 0.100000 0
4.500000 0.100000 0
4.600000 0.100000 0
4.700000 0.100000 0
4.800000 0.100000 0
4.900000 0.100000 0
5.000000 0.100000 0
5.100000 0.100000 0
5.200000 0.100000 0
5.300000 0.100000 0
5.400000 0.100000 0
5.500000 0.100000 0
5.600000 0.100000 0
5.700000 0.100000 0
5.800000 0.100000 0
5.900000 0.100000 0
6.000000 0.100000 0
6.100000 0.100000 0
6.200000 0.100000 0
6.300000 0.100000 0
6.400000 0.100000 0
6.500000 0.100000 0
6.600000 0.100000 0
6.700000 0.100000 0
6.800000 0.100000 0
6.900000 0.100000 0
7.000000 0.100000 0
7.100000 0.100000 0
7.200000 0.100000 0
7.300000 0.100000 0
7.400000 0.100000 0
7.500000 0.100000 0
7.600000 0.100000 0
7.700000 0.100000 0
7.800000 0.100000 0
7.900000 0.100000 0
8.000000 0.100000 0
8.100000 0.100000 0
8.200000 0.100000 0
8.300000 0.100000 0
8.400000 0.100000 0
8.500000 0.100000 0
8.600000 0.100000 0
8.700000 0.100000 0
8.800000 0.100000 0
8.900000 0.100000 0
9.000000 0.100000 0
9.100000 0.100000 0
9.200000 0.100000 0
9.300000 0.100000 0
9.400000 0.100000 0
9.500000 0.100000 0
9.600000 0.100000 0
9.700000 0.100000 0
9.800000 0.100000 0
9.900000 0.100000 0
10.000000 0.100000 0
0.000000 0.200000 0
0.100000 0.200000 0
0.200000 0.200000 0
0.300000 0.200000 0
0.400000 0.200000 0
0.500000 0.200000 0
0.600000 0.200000 0
0.700000 0.200000 0
0.800000 0.200000 0
0.900000 0.200000 0
1.000000 0.200000 0
1.100000 0.200000 0
1.200000 0.200000 0
1.300000 0.200000 0
1.400000 0.200000 0
1.500000 0.200000 0
1.600000 0.200000 0
1.700000 0.200000 0
1.800000 0.200000 0
1.900000 0.200000 0
2.000000 0.200000 0
2.100000 0.200000 0
2.200000 0.200000 0
2.300000 0.200000 0
2.400000 0.200000 0
2.500000 0.200000 0
2.600000 0.200000 0
2.700000 0.200000 0
2.800000 0.200000 0
2.900000 0.200000 0
3.000000 0.200000 0
3.100000 0.200000 0
3.200000 0.200000 0
3.300000 0.200000 0
3.400000 0.200000 0
3.500000 0.200000 0
3.600000 0.200000 0
3.700000 0.200000 0
3.800000 0.200000 0
3.900000 0.200000 0
4.000000 0.200000 0
4.100000 0.200000 0
4.200000 0.200000 0
4.300000 0.200000 0
4.400000 0.200000 0
4.500000 0.200000 0
4.600000 0.200000 0
4.700000 0.200000 0
4.800000 0.200000 0
4.900000 0.200000 0
5.000000 0.200000 0
5.100000 0.200000 0
5.200000 0.200000 0
5.300000 0.200000 0
5.400000 0.200000 0
5.500000 0.200000 0
5.600000 0.200000 0
5.700000 0.200000 0
5.800000 0.200000 0
5.900000 0.200000 0
6.000000 0.200000 0
6.100000 0.200000 0
6.200000 0.200000 0
6.300000 0.200000 0
6.400000 0.200000 0
6.500000 0.200000 0
6.600000 0.200000 0
6.700000 0.200000 0
6.800000 0.200000 0
6.900000 0.200000 0
7.000000 0.200000 0
7.100000 0.200000 0
7.200000 0.200000 0
7.300000 0.200000 0
7.400000 0.200000 0
7.500000 0.200000 0
7.600000 0.200000 0
7.700000 0.200000 0
7.800000 0.200000 0
7.900000 0.200000 0
8.000000 0.200000 0
8.100000 0.200000 0
8.200000 0.200000 0
8.300000 0.200000 0
8.400000 0.200000 0
8.500000 0.200000 0
8.600000 0.200000 0
8.700000 0.200000 0
8.800000 0.200000 0
8.900000 0.200000 0
9.000000 0.200000 0
9.100000 0.200000 0
9.200000 0.200000 0
9.300000 0.200000 0
9.400000 0.200000 0
9.500000 0.200000 0
9.600000 0.200000 0
9.700000 0.200000 0
9.800000 0.200000 0
9.900000 0.200000 0
10.000000 0.200000 0
0.000000 0.300000 0
0.100000 0.300000 0
0.200000 0.300000 0
0.300000 0.300000 0
0.400000 0.300000 0
0.500000 0.300000 0
0.600000 0.300000 0
0.700000 0.300000 0
0.800000 0.300000 0
0.900000 0.300000 0
1.000000 0.300000 0
1.100000 0.300000 0
1.200000 0.300000 0
1.300000 0.300000 0
1.400000 0.300000 0
1.500000 0.300000 0
1.600000 0.300000 0
1.700000 0.300000 0
1.800000 0.300000 0
1.900000 0.300000 0
2.000000 0.300000 0
2.100000 0.300000 0
2.200000 0.300000 0
2.300000 0.300000 0
2.400000 0.300000 0
2.500000 0.300000 0
2.600000 0.300000 0
2.700000 0.300000 0
2.800000 0.300000 0
2.900000 0.300000 0
3.000000 0.300000 0
3.100000 0.300000 0
3.200000 0.300000 0
3.300000 0.300000 0
3.400000 0.300000 0
3.500000 0.300000 0
3.600000 0.300000 0
3.700000 0.300000 0
3.800000 0.300000 0
3.900000 0.300000 0
4.000000 0.300000 0
4.100000 0.300000 0
4.200000 0.300000 0
4.300000 0.300000 0
4.400000 0.300000 0
4.500000 0.300000 0
4.600000 0.300000 0
4.700000 0.300000 0
4.800000 0.300000 0
4.900000 0.300000 0
5.000000 0.300000 0
5.100000 0.300000 0
5.200000 0.300000 0
5.300000 0.300000 0
5.400000 0.300000 0
5.500000 0.300000 0
5.600000 0.300000 0
5.700000 0.300000 0
5.800000 0.300000 0
5.900000 0.300000 0
6.000000 0.300000 0
6.100000 0.300000 0
6.200000 0.300000 0
6.300000 0.300000 0
6.400000 0.300000 0
6.500000 0.300000 0
6.600000 0.300000 0
6.700000 0.300000 0
6.800000 0.300000 0
6.900000 0.300000 0
7.000000 0.300000 0
7.100000 0.300000 0
7.200000 0.300000 0
7.300000 0.300000 0
7.400000 0.300000 0
7.500000 0.300000 0
7.600000 0.300000 0
7.700000 0.300000 0
7.800000 0.300000 0
7.900000 0.300000 0
8.000000 0.300000 0
8.100000 0.300000 0
8.200000 0.300000 0
8.300000 0.300000 0
8.400000 0.300000 0
8.500000 0.300000 0
8.600000 0.300000 0
8.700000 0.300000 0
8.800000 0.300000 0
8.900000 0.300000 0
9.000000 0.300000 0
9.100000 0.300000 0
9.200000 0.300000 0
9.300000 0.300000 0
9.400000 0.300000 0
9.500000 0.300000 0
9.600000 0.300000 0
9.700000 0.300000 0
9.800000 0.300000 0
9.900000 0.300000 0
10.000000 0.300000 0
0.000000 0.400000 0
0.100000 0.400000 0
0.200000 0.400000 0
0.300000 0.400000 0
0.400000 0.400000 0
0.500000 0.400000 0
0.600000 0.400000 0
0.700000 0.400000 0
0.800000 0.400000 0
0.900000 0.400000 0
1.000000 0.400000 0
1.100000 0.400000 0
1.200000 0.400000 0
1.300000 0.400000 0
1.400000 0.400000 0
1.500000 0.400000 0
1.600000 0.400000 0
1.700000 0.400000 0
1.800000 0.400000 0
1.900000 0.400000 0
2.000000 0.400000 0
2.100000 0.400000 0
2.200000 0.400000 0
2.300000 0.400000 0
2.400000 0.400000 0
2.500000 0.400000 0
2.600000 0.400000 0
2.700000 0.400000 0
2.800000 0.400000 0
2.900000 0.400000 0
3.000000 0.400000 0
3.100000 0.400000 0
3.200000 0.400000 0
3.300000 0.400000 0
3.400000 0.400000 0
3.500000 0.400000 0
3.600000 0.400000 0
3.700000 0.400000 0
3.800000 0.400000 0
3.900000 0.400000 0
4.000000 0.400000 0
4.100000 0.400000 0
4.200000 0.400000 0
4.300000 0.400000 0
4.400000 0.400000 0
4.500000 0.400000 0
4.600000 0.400000 0
4.700000 0.400000 0
4.800000 0.400000 0
4.900000 0.400000 0
5.000000 0.400000 0
5.100000 0.400000 0
5.200000 0.400000 0
5.300000 0.400000 0
5.400000 0.400000 0
5.500000 0.400000 0
5.600000 0.400000 0
5.700000 0.400000 0
5.800000 0.400000 0
5.900000 0.400000 0
6.000000 0.400000 0
6.100000 0.400000 0
6.200000 0.400000 0
6.300000 0.400000 0
6.400000 0.400000 0
6.500000 0.400000 0
6.600000 0.400000 0
6.700000 0.400000 0
6.800000 0.400000 0
6.900000 0.400000 0
7.000000 0.400000 0
7.100000 0.400000 0
7.200000 0.400000 0
7.300000 0.400000 0
7.400000 0.400000 0
7.500000 0.400000 0
7.600000 0.400000 0
7.700000 0.400000 0
7.800000 0.400000 0
7.900000 0.400000 0
8.000000 0.400000 0
8.100000 0.400000 0
8.200000 0.400000 0
8.300000 0.400000 0
8.400000 0.400000 0
8.500000 0.400000 0
8.600000 0.400000 0
[...]
POINT_DATA 2121 

VECTORS velocity float
0.500000 0.000000 0
-0.000000 0.000000 0
0.000000 0.000000 0
0.000004 0.000000 0
0.000013 0.000000 0
0.000022 0.000000 0
0.000026 0.000000 0
0.000022 0.000000 0
0.000013 0.000000 0
0.000005 0.000000 0
0.000002 0.000000 0
0.000009 0.000000 0
0.000030 0.000000 0
0.000072 0.000000 0
0.000135 0.000000 0
0.000223 0.000000 0
0.000336 0.000000 0
0.000475 0.000000 0
0.000642 0.000000 0
0.000842 0.000000 0
0.001079 0.000000 0
0.001354 0.000000 0
0.001671 0.000000 0
0.002091 0.000000 0
0.002621 0.000000 0
0.003180 0.000000 0
0.003639 0.000000 0
0.003974 0.000000 0
0.004201 0.000000 0
0.004279 0.000000 0
0.004157 0.000000 0
0.003860 0.000000 0
0.003478 0.000000 0
0.003096 0.000000 0
0.002623 0.000000 0
0.001688 0.000000 0
0.001224 0.000000 0
0.000132 0.000000 0
-0.000527 0.000000 0
-0.000840 0.000000 0
-0.001013 0.000000 0
-0.001095 0.000000 0
-0.001108 0.000000 0
-0.001081 0.000000 0
-0.001038 0.000000 0
-0.000989 0.000000 0
-0.000939 0.000000 0
-0.000890 0.000000 0
-0.000841 0.000000 0
-0.000794 0.000000 0
-0.000750 0.000000 0
-0.000706 0.000000 0
-0.000662 0.000000 0
-0.000622 0.000000 0
-0.000585 0.000000 0
-0.000549 0.000000 0
-0.000517 0.000000 0
-0.000488 0.000000 0
-0.000462 0.000000 0
-0.000438 0.000000 0
-0.000416 0.000000 0
-0.000396 0.000000 0
-0.000378 0.000000 0
-0.000363 0.000000 0
-0.000349 0.000000 0
-0.000337 0.000000 0
-0.000327 0.000000 0
-0.000314 0.000000 0
-0.000311 0.000000 0
-0.000306 0.000000 0
-0.000299 0.000000 0
-0.000292 0.000000 0
-0.000286 0.000000 0
-0.000281 0.000000 0
-0.000276 0.000000 0
-0.000272 0.000000 0
-0.000269 0.000000 0
-0.000267 0.000000 0
-0.000265 0.000000 0
-0.000263 0.000000 0
-0.000262 0.000000 0
-0.000261 0.000000 0
-0.000260 0.000000 0
-0.000259 0.000000 0
-0.000258 0.000000 0
-0.000258 0.000000 0
-0.000257 0.000000 0
-0.000257 0.000000 0
-0.000256 0.000000 0
-0.000256 0.000000 0
-0.000256 0.000000 0
-0.000256 0.000000 0
-0.000255 0.000000 0
-0.000255 0.000000 0
-0.000255 0.000000 0
-0.000255 0.000000 0
-0.000255 0.000000 0
-0.000255 0.000000 0
-0.000255 0.000000 0
-0.000256 0.000000 0
-0.000256 0.000000 0
1.000000 0.000260 0
1.000159 0.000476 0
1.000631 0.000264 0
1.001509 -0.000145 0
1.002892 -0.000791 0
1.004895 -0.001525 0
1.007602 -0.002308 0
1.011165 -0.003347 0
1.015781 -0.004634 0
1.021676 -0.006187 0
1.029114 -0.008040 0
1.038402 -0.010250 0
1.049917 -0.012888 0
1.064130 -0.016054 0
1.081644 -0.019867 0
1.103206 -0.024443 0
1.129699 -0.029852 0
1.162075 -0.036030 0
1.201210 -0.042654 0
1.247584 -0.048957 0
1.300726 -0.053552 0
1.358218 -0.054560 0
1.415897 -0.049597 0
1.465067 -0.037128 0
1.496190 -0.019043 0
1.506008 0.000954 0
1.494261 0.019710 0
1.465046 0.035497 0
1.421445 0.047798 0
1.367183 0.056076 0
1.306719 0.060097 0
1.244366 0.060255 0
1.183657 0.057520 0
1.126765 0.052687 0
1.075718 0.045507 0
1.030747 0.039084 0
0.994415 0.031181 0
0.970948 0.020045 0
0.956868 0.011357 0
0.949226 0.005841 0
0.945802 0.002160 0
0.945072 -0.000238 0
0.946027 -0.001645 0
0.947998 -0.002403 0
0.950552 -0.002786 0
0.953412 -0.002956 0
0.956410 -0.003002 0
0.959431 -0.002965 0
0.962399 -0.002866 0
0.965263 -0.002734 0
0.967976 -0.002583 0
0.970513 -0.002407 0
0.972864 -0.002213 0
0.975019 -0.002021 0
0.976972 -0.001833 0
0.978731 -0.001648 0
0.980308 -0.001475 0
0.981720 -0.001320 0
0.982976 -0.001180 0
0.984087 -0.001047 0
0.985065 -0.000920 0
0.985925 -0.000806 0
0.986675 -0.000703 0
0.987335 -0.000618 0
0.987898 -0.000532 0
0.988403 -0.000465 0
0.988839 -0.000408 0
0.989185 -0.000314 0
0.989518 -0.000284 0
0.989823 -0.000300 0
0.990089 -0.000272 0
0.990319 -0.000235 0
0.990515 -0.000200 0
0.990682 -0.000168 0
0.990823 -0.000139 0
0.990941 -0.000115 0
0.991040 -0.000096 0
0.991123 -0.000080 0
0.991193 -0.000068 0
0.991251 -0.000058 0
0.991301 -0.000050 0
0.991342 -0.000043 0
0.991377 -0.000037 0
0.991407 -0.000032 0
0.991432 -0.000029 0
0.991453 -0.000026 0
0.991471 -0.000023 0
0.991487 -0.000021 0
0.991501 -0.000019 0
0.991513 -0.000017 0
0.991525 -0.000017 0
0.991537 -0.000018 0
0.991550 -0.000021 0
0.991566 -0.000023 0
0.991586 -0.000032 0
0.991613 -0.000038 0
0.991652 -0.000065 0
0.991713 -0.000089 0
0.991803 -0.000216 0
0.991963 -0.000433 0
0.992192 -0.000519 0
1.000000 -0.000181 0
1.000744 -0.000662 0
1.002021 -0.001369 0
1.003779 -0.002280 0
1.006049 -0.003405 0
1.008786 -0.004728 0
1.012220 -0.006287 0
1.016425 -0.008195 0
1.021537 -0.010526 0
1.027741 -0.013347 0
1.035261 -0.016740 0
1.044367 -0.020815 0
1.055402 -0.025739 0
1.068820 -0.031736 0
1.085234 -0.039084 0
1.105446 -0.048062 0
1.130464 -0.058874 0
1.161493 -0.071514 0
1.199902 -0.085510 0
1.247037 -0.099516 0
1.303682 -0.110633 0
1.367691 -0.115168 0
1.438347 -0.106845 0
1.496293 -0.080287 0
1.533016 -0.040934 0
1.546034 0.001937 0
1.534753 0.040972 0
1.500656 0.072826 0
1.450782 0.097873 0
1.390353 0.114737 0
1.324004 0.122827 0
1.258138 0.123073 0
1.198867 0.117612 0
1.143578 0.107949 0
1.092276 0.096028 0
1.038396 0.081314 0
0.998591 0.059809 0
0.973248 0.037556 0
0.961487 0.021730 0
0.955948 0.011074 0
0.953734 0.004161 0
0.953601 -0.000219 0
0.954832 -0.002921 0
0.956951 -0.004520 0
0.959624 -0.005410 0
0.962624 -0.005855 0
0.965784 -0.006016 0
0.968981 -0.005987 0
0.972128 -0.005831 0
0.975154 -0.005576 0
0.978005 -0.005251 0
0.980652 -0.004889 0
0.983086 -0.004507 0
0.985304 -0.004110 0
0.987305 -0.003714 0
0.989101 -0.003339 0
0.990707 -0.002993 0
0.992133 -0.002672 0
0.993391 -0.002372 0
0.994495 -0.002095 0
0.995466 -0.001843 0
0.996319 -0.001615 0
0.997064 -0.001416 0
0.997718 -0.001230 0
0.998278 -0.001075 0
0.998782 -0.000948 0
0.999192 -0.000789 0
0.999567 -0.000687 0
0.999953 -0.000646 0
1.000243 -0.000579 0
1.000483 -0.000503 0
1.000689 -0.000434 0
1.000867 -0.000372 0
1.001021 -0.000317 0
1.001154 -0.000267 0
1.001269 -0.000225 0
1.001367 -0.000190 0
1.001450 -0.000161 0
1.001521 -0.000137 0
1.001582 -0.000117 0
1.001632 -0.000100 0
1.001676 -0.000086 0
1.001712 -0.000074 0
1.001744 -0.000064 0
1.001770 -0.000055 0
1.001792 -0.000049 0
1.001811 -0.000043 0
1.001828 -0.000039 0
1.001842 -0.000035 0
1.001856 -0.000033 0
1.001869 -0.000033 0
1.001882 -0.000034 0
1.001895 -0.000038 0
1.001910 -0.000045 0
1.001930 -0.000057 0
1.001951 -0.000076 0
1.001987 -0.000109 0
1.002016 -0.000161 0
1.002080 -0.000259 0
1.002058 -0.000398 0
1.002003 -0.000469 0
1.000000 -0.000500 0
1.000551 -0.001564 0
1.001612 -0.002779 0
1.003138 -0.004180 0
1.005136 -0.005806 0
1.007632 -0.007704 0
1.010735 -0.009955 0
1.014538 -0.012670 0
1.019159 -0.015955 0
1.024739 -0.019916 0
1.031449 -0.024671 0
1.039508 -0.030395 0
1.049203 -0.037345 0
1.060936 -0.045889 0
1.075282 -0.056495 0
1.093064 -0.069675 0
1.115391 -0.085901 0
1.143742 -0.105469 0
1.180114 -0.128197 0
1.227463 -0.152737 0
1.288986 -0.174204 0
1.362900 -0.189222 0
1.460059 -0.178196 0
1.533777 -0.131794 0
1.577501 -0.068781 0
1.593746 -0.000779 0
1.583428 0.065092 0
1.544211 0.119472 0
1.482780 0.158105 0
1.409690 0.182858 0
1.333404 0.192316 0
1.257344 0.185396 0
1.179207 0.172083 0
1.105702 0.159283 0
1.026914 0.150693 0
0.967091 0.132772 0
0.937034 0.096332 0
0.932907 0.057152 0
0.942066 0.028661 0
0.945624 0.013597 0
0.947032 0.004509 0
0.948665 -0.001334 0
0.950997 -0.004993 0
0.953925 -0.007193 0
0.957265 -0.008458 0
0.960852 -0.009115 0
0.964539 -0.009359 0
0.968191 -0.009309 0
0.971708 -0.009039 0
0.975026 -0.008612 0
0.978105 -0.008082 0
0.980917 -0.007489 0
0.983453 -0.006866 0
0.985729 -0.006240 0
0.987767 -0.005632 0
0.989580 -0.005052 0
0.991182 -0.004508 0
0.992588 -0.004006 0
0.993820 -0.003545 0
0.994898 -0.003124 0
0.995842 -0.002746 0
0.996663 -0.002407 0
0.997383 -0.002105 0
0.997996 -0.001835 0
0.998554 -0.001599 0
0.999012 -0.001382 0
0.999401 -0.001196 0
0.999811 -0.001078 0
1.000137 -0.000963 0
1.000403 -0.000833 0
1.000630 -0.000722 0
1.000826 -0.000623 0
1.000993 -0.000536 0
1.001137 -0.000459 0
1.001260 -0.000391 0
1.001366 -0.000331 0
1.001457 -0.000281 0
1.001534 -0.000238 0
1.001600 -0.000203 0
1.001656 -0.000173 0
1.001704 -0.000148 0
1.001744 -0.000126 0
1.001778 -0.000109 0
1.001807 -0.000094 0
1.001832 -0.000081 0
1.001853 -0.000071 0
1.001870 -0.000062 0
1.001885 -0.000056 0
1.001898 -0.000051 0
1.001910 -0.000048 0
1.001921 -0.000047 0
1.001932 -0.000048 0
1.001942 -0.000053 0
1.001953 -0.000062 0
1.001966 -0.000076 0
1.001979 -0.000099 0
1.001995 -0.000134 0
1.002008 -0.000186 0
1.002016 -0.000262 0
1.001990 -0.000359 0
1.001931 -0.000412 0
1.000000 -0.000748 0
1.000421 -0.002295 0
1.001285 -0.003964 0
1.002551 -0.005812 0
1.004229 -0.007906 0
1.006365 -0.010333 0
1.009039 -0.013200 0
1.012331 -0.016626 0
1.016319 -0.020732 0
1.021080 -0.025643 0
1.026719 -0.031514 0
1.033384 -0.038574 0
1.041286 -0.047170 0
1.050720 -0.057819 0
1.062171 -0.071215 0
1.076431 -0.088173 0
1.094634 -0.109553 0
1.118374 -0.136238 0
1.149776 -0.169232 0
1.194974 -0.208387 0
1.259487 -0.246068 0
1.344001 -0.286239 0
1.502805 -0.277720 0
1.599435 -0.197727 0
1.642645 -0.100899 0
1.656337 -0.003986 0
1.646292 0.090511 0
1.604255 0.173478 0
1.525739 0.232398 0
1.429824 0.264117 0
1.329202 0.275178 0
1.225514 0.277274 0
1.152938 0.269258 0
1.156241 0.260245 0
1.137025 0.234642 0
1.075880 0.171198 0
1.012863 0.093997 0
0.971431 0.032527 0
0.946067 0.009016 0
0.938261 0.006110 0
0.938321 0.001122 0
0.941053 -0.004182 0
0.944768 -0.008179 0
0.948999 -0.010786 0
0.953532 -0.012337 0
0.958180 -0.013128 0
0.962768 -0.013354 0
0.967155 -0.013156 0
0.971247 -0.012665 0
0.974990 -0.011974 0
0.978368 -0.011143 0
0.981383 -0.010238 0
0.984054 -0.009320 0
0.986403 -0.008425 0
0.988463 -0.007567 0
0.990265 -0.006757 0
0.991839 -0.006003 0
0.993210 -0.005311 0
0.994401 -0.004684 0
0.995433 -0.004120 0
0.996328 -0.003610 0
0.997105 -0.003158 0
0.997769 -0.002752 0
0.998351 -0.002404 0
0.998854 -0.002094 0
0.999269 -0.001798 0
0.999682 -0.001592 0
1.000041 -0.001426 0
1.000322 -0.001241 0
1.000566 -0.001076 0
1.000773 -0.000930 0
1.000950 -0.000800 0
1.001101 -0.000687 0
1.001228 -0.000587 0
1.001338 -0.000500 0
1.001431 -0.000426 0
1.001511 -0.000362 0
1.001580 -0.000308 0
1.001639 -0.000263 0
1.001689 -0.000224 0
1.001731 -0.000191 0
1.001767 -0.000164 0
1.001798 -0.000141 0
1.001824 -0.000121 0
1.001846 -0.000105 0
1.001864 -0.000091 0
1.001879 -0.000080 0
1.001892 -0.000071 0
1.001904 -0.000064 0
1.001913 -0.000060 0
1.001922 -0.000058 0
1.001929 -0.000059 0
1.001936 -0.000064 0
1.001942 -0.000072 0
1.001948 -0.000087 0
1.001953 -0.000109 0
1.001955 -0.000141 0
1.001952 -0.000186 0
1.001938 -0.000245 0
1.001903 -0.000317 0
1.001845 -0.000356 0
1.000000 -0.000937 0
1.000293 -0.002869 0
1.000975 -0.004916 0
1.001966 -0.007131 0
1.003288 -0.009627 0
1.004991 -0.012520 0
1.007144 -0.015928 0
1.009819 -0.019956 0
1.013055 -0.024709 0
1.016852 -0.030321 0
1.021225 -0.036981 0
1.026233 -0.044966 0
1.031982 -0.054684 0
1.038578 -0.066777 0
1.046298 -0.082210 0
1.055892 -0.102142 0
1.068360 -0.127845 0
1.085261 -0.160611 0
1.105855 -0.204798 0
1.144761 -0.262448 0
1.200732 -0.323230 0
1.295472 -0.432540 0
1.586201 -0.433628 0
1.674558 -0.271630 0
1.683851 -0.125679 0
1.681542 -0.004422 0
1.684194 0.117178 0
1.668702 0.240029 0
1.596984 0.332541 0
1.480072 0.379399 0
1.335227 0.396630 0
1.204076 0.361664 0
1.107360 0.241361 0
1.021318 0.175200 0
0.969412 0.231057 0
0.936548 0.256938 0
0.919337 0.200784 0
0.912806 0.123950 0
0.909873 0.061833 0
0.915783 0.021346 0
0.922942 0.001719 0
0.929494 -0.007780 0
0.935819 -0.012937 0
0.942213 -0.015956 0
0.948638 -0.017638 0
0.954891 -0.018350 0
0.960772 -0.018334 0
0.966158 -0.017787 0
0.970992 -0.016874 0
0.975257 -0.015733 0
0.978980 -0.014475 0
0.982209 -0.013176 0
0.984997 -0.011887 0
0.987392 -0.010651 0
0.989451 -0.009495 0
0.991223 -0.008430 0
0.992747 -0.007455 0
0.994051 -0.006569 0
0.995169 -0.005770 0
0.996136 -0.005054 0
0.996956 -0.004420 0
0.997662 -0.003850 0
0.998280 -0.003354 0
0.998789 -0.002923 0
0.999229 -0.002520 0
0.999644 -0.002212 0
1.000027 -0.001971 0
1.000319 -0.001722 0
1.000566 -0.001491 0
1.000774 -0.001287 0
1.000950 -0.001109 0
1.001100 -0.000954 0
1.001227 -0.000818 0
1.001336 -0.000699 0
1.001429 -0.000597 0
1.001509 -0.000509 0
1.001577 -0.000434 0
1.001636 -0.000370 0
1.001686 -0.000315 0
1.001729 -0.000269 0
1.001765 -0.000230 0
1.001796 -0.000197 0
1.001822 -0.000169 0
1.001844 -0.000145 0
1.001863 -0.000125 0
1.001878 -0.000108 0
1.001891 -0.000095 0
1.001902 -0.000084 0
1.001910 -0.000075 0
1.001917 -0.000070 0
1.001923 -0.000067 0
1.001928 -0.000066 0
1.001930 -0.000070 0
1.001932 -0.000077 0
1.001932 -0.000090 0
1.001928 -0.000110 0
1.001921 -0.000137 0
1.001906 -0.000172 0
1.001881 -0.000217 0
1.001840 -0.000270 0
1.001781 -0.000299 0
1.000000 -0.001057 0
1.000095 -0.003289 0
1.000643 -0.005645 0
1.001337 -0.008133 0
1.002299 -0.010938 0
1.003556 -0.014195 0
1.005140 -0.018035 0
1.007119 -0.022544 0
1.009521 -0.027771 0
1.012260 -0.033818 0
1.015252 -0.040900 0
1.018456 -0.049336 0
1.021916 -0.059519 0
1.025369 -0.072138 0
1.028598 -0.088531 0
1.032772 -0.110237 0
1.037920 -0.138925 0
1.047553 -0.173735 0
1.047372 -0.228733 0
1.077515 -0.303265 0
1.096019 -0.396779 0
1.233859 -0.671707 0
1.583213 -0.656804 0
1.518573 -0.295373 0
1.424157 -0.107879 0
1.397446 -0.004325 0
1.418956 0.103355 0
1.510792 0.260693 0
1.525002 0.421032 0
1.471774 0.525878 0
1.365917 0.551178 0
1.245845 0.505145 0
1.083804 0.452020 0
0.837507 0.398197 0
0.707225 0.319415 0
0.738728 0.221276 0
0.820670 0.117742 0
0.873062 0.041994 0
0.896019 0.006041 0
0.903579 -0.006958 0
0.909141 -0.012587 0
0.916312 -0.017056 0
0.924904 -0.020896 0
0.934071 -0.023604 0
0.943100 -0.025014 0
0.951518 -0.025262 0
0.959066 -0.024620 0
0.965658 -0.023376 0
0.971315 -0.021764 0
0.976120 -0.019962 0
0.980172 -0.018096 0
0.983570 -0.016255 0
0.986412 -0.014503 0
0.988792 -0.012880 0
0.990797 -0.011400 0
0.992493 -0.010054 0
0.993926 -0.008833 0
0.995130 -0.007736 0
0.996136 -0.006771 0
0.996994 -0.005909 0
0.997741 -0.005139 0
0.998343 -0.004485 0
0.998880 -0.003881 0
0.999321 -0.003356 0
0.999745 -0.002952 0
1.000120 -0.002599 0
1.000409 -0.002270 0
1.000645 -0.001968 0
1.000842 -0.001699 0
1.001009 -0.001464 0
1.001151 -0.001259 0
1.001271 -0.001081 0
1.001372 -0.000926 0
1.001459 -0.000792 0
1.001534 -0.000677 0
1.001598 -0.000578 0
1.001653 -0.000493 0
1.001700 -0.000421 0
1.001741 -0.000359 0
1.001775 -0.000307 0
1.001805 -0.000262 0
1.001829 -0.000225 0
1.001850 -0.000192 0
1.001868 -0.000165 0
1.001883 -0.000142 0
1.001895 -0.000123 0
1.001905 -0.000107 0
1.001912 -0.000094 0
1.001919 -0.000084 0
1.001923 -0.000077 0
1.001926 -0.000072 0
1.001927 -0.000070 0
1.001926 -0.000072 0
1.001924 -0.000077 0
1.001918 -0.000087 0
1.001908 -0.000102 0
1.001893 -0.000123 0
1.001871 -0.000150 0
1.001839 -0.000183 0
1.001794 -0.000221 0
1.001735 -0.000241 0
1.000000 -0.001048 0
0.999916 -0.003532 0
1.000299 -0.006166 0
1.000725 -0.008795 0
1.001213 -0.011853 0
1.002002 -0.015368 0
1.003044 -0.019498 0
1.004350 -0.024343 0
1.005948 -0.029856 0
1.007604 -0.036058 0
1.009161 -0.043182 0
1.010491 -0.051635 0
1.011855 -0.061601 0
1.012388 -0.073463 0
1.010251 -0.089616 0
1.013020 -0.111466 0
1.003807 -0.142629 0
1.008757 -0.170064 0
0.992409 -0.234760 0
0.999504 -0.311095 0
0.966011 -0.479574 0
1.078342 -0.919733 0
0.763128 -0.605770 0
-0.001352 0.000000 0
-0.002177 0.000000 0
0.561130 0.005331 0
0.575980 0.003836 0
0.820589 0.133988 0
1.062041 0.371564 0
1.165315 0.538489 0
1.183923 0.622563 0
1.123193 0.643780 0
1.019089 0.649702 0
0.935818 0.551782 0
0.911319 0.329840 0
0.915581 0.143496 0
0.914662 0.066452 0
0.899685 0.048604 0
0.884892 0.031319 0
0.880205 0.008226 0
0.885765 -0.011012 0
0.897303 -0.023541 0
0.911097 -0.030694 0
0.924942 -0.034150 0
0.937716 -0.035085 0
0.948940 -0.034315 0
0.958454 -0.032473 0
0.966317 -0.030036 0
0.972735 -0.027337 0
0.977956 -0.024590 0
0.982205 -0.021925 0
0.985658 -0.019416 0
0.988453 -0.017111 0
0.990718 -0.015037 0
0.992563 -0.013197 0
0.994101 -0.011561 0
0.995382 -0.010094 0
0.996462 -0.008781 0
0.997294 -0.007636 0
0.998017 -0.006661 0
0.998667 -0.005772 0
0.999146 -0.004991 0
0.999605 -0.004335 0
1.000015 -0.003791 0
1.000356 -0.003322 0
1.000620 -0.002879 0
1.000829 -0.002499 0
1.001001 -0.002158 0
1.001145 -0.001859 0
1.001267 -0.001599 0
1.001369 -0.001374 0
1.001456 -0.001179 0
1.001530 -0.001010 0
1.001594 -0.000864 0
1.001649 -0.000739 0
1.001696 -0.000632 0
1.001737 -0.000540 0
1.001772 -0.000461 0
1.001801 -0.000394 0
1.001827 -0.000337 0
1.001849 -0.000288 0
1.001867 -0.000246 0
1.001882 -0.000211 0
1.001895 -0.000181 0
1.001905 -0.000156 0
1.001914 -0.000134 0
1.001920 -0.000116 0
1.001925 -0.000102 0
1.001928 -0.000090 0
1.001930 -0.000081 0
1.001930 -0.000074 0
1.001929 -0.000071 0
1.001925 -0.000070 0
1.001918 -0.000073 0
1.001908 -0.000079 0
1.001893 -0.000089 0
1.001873 -0.000103 0
1.001846 -0.000122 0
1.001809 -0.000144 0
1.001762 -0.000170 0
1.001702 -0.000184 0
1.000000 -0.000988 0
0.999911 -0.003608 0
0.999937 -0.006463 0
1.000171 -0.009054 0
1.000334 -0.012222 0
1.000500 -0.016033 0
1.000777 -0.020389 0
1.001474 -0.025454 0
1.002408 -0.031031 0
1.003056 -0.037038 0
1.003295 -0.043793 0
1.003319 -0.052035 0
1.002310 -0.061420 0
1.000112 -0.070537 0
0.998435 -0.089167 0
0.990576 -0.103795 0
0.988175 -0.134665 0
0.960008 -0.162339 0
0.966870 -0.219481 0
0.893596 -0.276868 0
0.882667 -0.475617 0
0.640234 -0.581395 0
0.000000 -0.002291 0
-0.665811 0.240629 0
-0.582504 0.000000 0
0.000000 0.000000 0
0.000758 -0.160674 0
0.004506 -0.225364 0
0.383934 0.076310 0
0.595945 0.403999 0
0.749007 0.593303 0
0.793866 0.669983 0
0.799957 0.639400 0
0.851193 0.505971 0
0.867404 0.339655 0
0.825164 0.217936 0
0.778836 0.133640 0
0.769266 0.071767 0
0.787643 0.025524 0
0.815680 -0.007829 0
0.844585 -0.029683 0
0.871587 -0.042387 0
0.895763 -0.048533 0
0.916708 -0.050221 0
0.934291 -0.049011 0
0.948686 -0.046000 0
0.960146 -0.041997 0
0.969028 -0.037657 0
0.975888 -0.033403 0
0.981220 -0.029432 0
0.985353 -0.025799 0
0.988654 -0.022504 0
0.991225 -0.019564 0
0.993211 -0.016991 0
0.994814 -0.014784 0
0.996028 -0.012875 0
0.997183 -0.011196 0
0.998017 -0.009651 0
0.998650 -0.008328 0
0.999272 -0.007283 0
0.999746 -0.006271 0
1.000143 -0.005425 0
1.000475 -0.004753 0
1.000764 -0.004109 0
1.000967 -0.003560 0
1.001137 -0.003076 0
1.001269 -0.002655 0
1.001375 -0.002287 0
1.001462 -0.001968 0
1.001536 -0.001691 0
1.001598 -0.001452 0
1.001652 -0.001245 0
1.001697 -0.001067 0
1.001737 -0.000914 0
1.001771 -0.000782 0
1.001801 -0.000669 0
1.001826 -0.000572 0
1.001848 -0.000489 0
1.001867 -0.000418 0
1.001882 -0.000358 0
1.001896 -0.000306 0
1.001907 -0.000262 0
1.001916 -0.000224 0
1.001924 -0.000192 0
1.001930 -0.000165 0
1.001934 -0.000142 0
1.001938 -0.000122 0
1.001939 -0.000106 0
1.001940 -0.000093 0
1.001939 -0.000082 0
1.001937 -0.000074 0
1.001932 -0.000068 0
1.001925 -0.000065 0
1.001916 -0.000065 0
1.001902 -0.000067 0
1.001884 -0.000071 0
1.001861 -0.000079 0
1.001830 -0.000090 0
1.001790 -0.000103 0
1.001741 -0.000118 0
1.001681 -0.000126 0
1.000000 -0.000976 0
0.999848 -0.003489 0
0.999759 -0.006433 0
0.999811 -0.009199 0
0.999735 -0.012189 0
0.999410 -0.015818 0
0.999232 -0.020479 0
0.999242 -0.025981 0
0.999192 -0.031445 0
0.999012 -0.036950 0
0.998439 -0.043450 0
0.997170 -0.050656 0
0.994414 -0.058400 0
0.990776 -0.069592 0
0.987167 -0.080083 0
0.975376 -0.101209 0
0.968020 -0.112064 0
0.940143 -0.148762 0
0.919689 -0.168350 0
0.848335 -0.226894 0
0.791448 -0.226213 0
0.462738 -0.135483 0
0.324929 -0.063951 0
0.000000 0.000000 0
0.000000 0.000000 0
0.000000 0.000000 0
0.000000 0.000000 0
-0.155433 -0.243944 0
-0.210694 -0.219872 0
0.109439 0.173419 0
0.269248 0.424645 0
0.408654 0.592833 0
0.500485 0.592378 0
0.557469 0.484339 0
0.559018 0.355872 0
0.556813 0.232066 0
0.586919 0.122352 0
0.639868 0.039799 0
0.699228 -0.015094 0
0.756679 -0.048713 0
0.807609 -0.066917 0
0.850495 -0.074718 0
0.885643 -0.075814 0
0.913920 -0.072677 0
0.936015 -0.067062 0
0.952991 -0.060170 0
0.965791 -0.052814 0
0.974883 -0.045778 0
0.981366 -0.039529 0