# vtk DataFile Version 2.0
generated by CFD-lab course output (written by Tobias Neckel) 
ASCII

DATASET STRUCTURED_GRID
DIMENSIONS  101 21 1 
POINTS 2121 float

0.000000 0.000000 0
0.100000 0.000000 0
0.200000 0.000000 0
0.300000 0.000000 0
0.400000 0.000000 0
0.500000 0.000000 0
0.600000 0.000000 0
0.700000 0.000000 0
0.800000 0.000000 0
0.900000 0.000000 0
1.000000 0.000000 0
1.100000 0.000000 0
1.200000 0.000000 0
1.300000 0.000000 0
1.400000 0.000000 0
1.500000 0.000000 0
1.600000 0.000000 0
1.700000 0.000000 0
1.800000 0.000000 0
1.900000 0.000000 0
2.000000 0.000000 0
2.100000 0.000000 0
2.200000 0.000000 0
2.300000 0.000000 0
2.400000 0.000000 0
2.500000 0.000000 0
2.600000 0.000000 0
2.700000 0.000000 0
2.800000 0.000000 0
2.900000 0.000000 0
3.000000 0.000000 0
3.100000 0.000000 0
3.200000 0.000000 0
3.300000 0.000000 0
3.400000 0.000000 0
3.500000 0.000000 0
3.600000 0.000000 0
3.700000 0.000000 0
3.800000 0.000000 0
3.900000 0.000000 0
4.000000 0.000000 0
4.100000 0.000000 0
4.200000 0.000000 0
4.300000 0.000000 0
4.400000 0.000000 0
4.500000 0.000000 0
4.600000 0.000000 0
4.700000 0.000000 0
4.800000 0.000000 0
4.900000 0.000000 0
5.000000 0.000000 0
5.100000 0.000000 0
5.200000 0.000000 0
5.300000 0.000000 0
5.400000 0.000000 0
5.500000 0.000000 0
5.600000 0.000000 0
5.700000 0.000000 0
5.800000 0.000000 0
5.900000 0.000000 0
6.000000 0.000000 0
6.100000 0.000000 0
6.200000 0.000000 0
6.300000 0.000000 0
6.400000 0.000000 0
6.500000 0.000000 0
6.600000 0.000000 0
6.700000 0.000000 0
6.800000 0.000000 0
6.900000 0.000000 0
7.000000 0.000000 0
7.100000 0.000000 0
7.200000 0.000000 0
7.300000 0.000000 0
7.400000 0.000000 0
7.500000 0.000000 0
7.600000 0.000000 0
7.700000 0.000000 0
7.800000 0.000000 0
7.900000 0.000000 0
8.000000 0.000000 0
8.100000 0.000000 0
8.200000 0.000000 0
8.300000 0.000000 0
8.400000 0.000000 0
8.500000 0.000000 0
8.600000 0.000000 0
8.700000 0.000000 0
8.800000 0.000000 0
8.900000 0.000000 0
9.000000 0.000000 0
9.100000 0.000000 0
9.200000 0.000000 0
9.300000 0.000000 0
9.400000 0.000000 0
9.500000 0.000000 0
9.600000 0.000000 0
9.700000 0.000000 0
9.800000 0.000000 0
9.900000 0.000000 0
10.000000 0.000000 0
0.000000 0.100000 0
0.100000 0.100000 0
0.200000 0.100000 0
0.300000 0.100000 0
0.400000 0.100000 0
0.500000 0.100000 0
0.600000 0.100000 0
0.700000 0.100000 0
0.800000 0.100000 0
0.900000 0.100000 0
1.000000 0.100000 0
1.100000 0.100000 0
1.200000 0.100000 0
1.300000 0.100000 0
1.400000 0.100000 0
1.500000 0.100000 0
1.600000 0.100000 0
1.700000 0.100000 0
1.800000 0.100000 0
1.900000 0.100000 0
2.000000 0.100000 0
2.100000 0.100000 0
2.200000 0.100000 0
2.300000 0.100000 0
2.400000 0.100000 0
2.500000 0.100000 0
2.600000 0.100000 0
2.700000 0.100000 0
2.800000 0.100000 0
2.900000 0.100000 0
3.000000 0.100000 0
3.100000 0.100000 0
3.200000 0.100000 0
3.300000 0.100000 0
3.400000 0.100000 0
3.500000 0.100000 0
3.600000 0.100000 0
3.700000 0.100000 0
3.800000 0.100000 0
3.900000 0.100000 0
4.000000 0.100000 0
4.100000 0.100000 0
4.200000 0.100000 0
4.300000 0.100000 0
4.400000 0.100000 0
4.500000 0.100000 0
4.600000 0.100000 0
4.700000 0.100000 0
4.800000 0.100000 0
4.900000 0.100000 0
5.000000 0.100000 0
5.100000 0.100000 0
5.200000 0.100000 0
5.300000 0.100000 0
5.400000 0.100000 0
5.500000 0.100000 0
5.600000 0.100000 0
5.700000 0.100000 0
5.800000 0.100000 0
5.900000 0.100000 0
6.000000 0.100000 0
6.100000 0.100000 0
6.200000 0.100000 0
6.300000 0.100000 0
6.400000 0.100000 0
6.500000 0.100000 0
6.600000 0.100000 0
6.700000 0.100000 0
6.800000 0.100000 0
6.900000 0.100000 0
7.000000 0.100000 0
7.100000 0.100000 0
7.200000 0.100000 0
7.300000 0.100000 0
7.400000 0.100000 0
7.500000 0.100000 0
7.600000 0.100000 0
7.700000 0.100000 0
7.800000 0.100000 0
7.900000 0.100000 0
8.000000 0.100000 0
8.100000 0.100000 0
8.200000 0.100000 0
8.300000 0.100000 0
8.400000 0.100000 0
8.500000 0.100000 0
8.600000 0.100000 0
8.700000 0.100000 0
8.800000 0.100000 0
8.900000 0.100000 0
9.000000 0.100000 0
9.100000 0.100000 0
9.200000 0.100000 0
9.300000 0.100000 0
9.400000 0.100000 0
9.500000 0.100000 0
9.600000 0.100000 0
9.700000 0.100000 0
9.800000 0.100000 0
9.900000 0.100000 0
10.000000 0.100000 0
0.000000 0.200000 0
0.100000 0.200000 0
0.200000 0.200000 0
0.300000 0.200000 0
0.400000 0.200000 0
0.500000 0.200000 0
0.600000 0.200000 0
0.700000 0.200000 0
0.800000 0.200000 0
0.900000 0.200000 0
1.000000 0.200000 0
1.100000 0.200000 0
1.200000 0.200000 0
1.300000 0.200000 0
1.400000 0.200000 0
1.500000 0.200000 0
1.600000 0.200000 0
1.700000 0.200000 0
1.800000 0.200000 0
1.900000 0.200000 0
2.000000 0.200000 0
2.100000 0.200000 0
2.200000 0.200000 0
2.300000 0.200000 0
2.400000 0.200000 0
2.500000 0.200000 0
2.600000 0.200000 0
2.700000 0.200000 0
2.800000 0.200000 0
2.900000 0.200000 0
3.000000 0.200000 0
3.100000 0.200000 0
3.200000 0.200000 0
3.300000 0.200000 0
3.400000 0.200000 0
3.500000 0.200000 0
3.600000 0.200000 0
3.700000 0.200000 0
3.800000 0.200000 0
3.900000 0.200000 0
4.000000 0.200000 0
4.100000 0.200000 0
4.200000 0.200000 0
4.300000 0.200000 0
4.400000 0.200000 0
4.500000 0.200000 0
4.600000 0.200000 0
4.700000 0.200000 0
4.800000 0.200000 0
4.900000 0.200000 0
5.000000 0.200000 0
5.100000 0.200000 0
5.200000 0.200000 0
5.300000 0.200000 0
5.400000 0.200000 0
5.500000 0.200000 0
5.600000 0.200000 0
5.700000 0.200000 0
5.800000 0.200000 0
5.900000 0.200000 0
6.000000 0.200000 0
6.100000 0.200000 0
6.200000 0.200000 0
6.300000 0.200000 0
6.400000 0.200000 0
6.500000 0.200000 0
6.600000 0.200000 0
6.700000 0.200000 0
6.800000 0.200000 0
6.900000 0.200000 0
7.000000 0.200000 0
7.100000 0.200000 0
7.200000 0.200000 0
7.300000 0.200000 0
7.400000 0.200000 0
7.500000 0.200000 0
7.600000 0.200000 0
7.700000 0.200000 0
7.800000 0.200000 0
7.900000 0.200000 0
8.000000 0.200000 0
8.100000 0.200000 0
8.200000 0.200000 0
8.300000 0.200000 0
8.400000 0.200000 0
8.500000 0.200000 0
8.600000 0.200000 0
8.700000 0.200000 0
8.800000 0.200000 0
8.900000 0.200000 0
9.000000 0.200000 0
9.100000 0.200000 0
9.200000 0.200000 0
9.300000 0.200000 0
9.400000 0.200000 0
9.500000 0.200000 0
9.600000 0.200000 0
9.700000 0.200000 0
9.800000 0.200000 0
9.900000 0.200000 0
10.000000 0.200000 0
0.000000 0.300000 0
0.100000 0.300000 0
0.200000 0.300000 0
0.300000 0.300000 0
0.400000 0.300000 0
0.500000 0.300000 0
0.600000 0.300000 0
0.700000 0.300000 0
0.800000 0.300000 0
0.900000 0.300000 0
1.000000 0.300000 0
1.100000 0.300000 0
1.200000 0.300000 0
1.300000 0.300000 0
1.400000 0.300000 0
1.500000 0.300000 0
1.600000 0.300000 0
1.700000 0.300000 0
1.800000 0.300000 0
1.900000 0.300000 0
2.000000 0.300000 0
2.100000 0.300000 0
2.200000 0.300000 0
2.300000 0.300000 0
2.400000 0.300000 0
2.500000 0.300000 0
2.600000 0.300000 0
2.700000 0.300000 0
2.800000 0.300000 0
2.900000 0.300000 0
3.000000 0.300000 0
3.100000 0.300000 0
3.200000 0.300000 0
3.300000 0.300000 0
3.400000 0.300000 0
3.500000 0.300000 0
3.600000 0.300000 0
3.700000 0.300000 0
3.800000 0.300000 0
3.900000 0.300000 0
4.000000 0.300000 0
4.100000 0.300000 0
4.200000 0.300000 0
4.300000 0.300000 0
4.400000 0.300000 0
4.500000 0.300000 0
4.600000 0.300000 0
4.700000 0.300000 0
4.800000 0.300000 0
4.900000 0.300000 0
5.000000 0.300000 0
5.100000 0.300000 0
5.200000 0.300000 0
5.300000 0.300000 0
5.400000 0.300000 0
5.500000 0.300000 0
5.600000 0.300000 0
5.700000 0.300000 0
5.800000 0.300000 0
5.900000 0.300000 0
6.000000 0.300000 0
6.100000 0.300000 0
6.200000 0.300000 0
6.300000 0.300000 0
6.400000 0.300000 0
6.500000 0.300000 0
6.600000 0.300000 0
6.700000 0.300000 0
6.800000 0.300000 0
6.900000 0.300000 0
7.000000 0.300000 0
7.100000 0.300000 0
7.200000 0.300000 0
7.300000 0.300000 0
7.400000 0.300000 0
7.500000 0.300000 0
7.600000 0.300000 0
7.700000 0.300000 0
7.800000 0.300000 0
7.900000 0.300000 0
8.000000 0.300000 0
8.100000 0.300000 0
8.200000 0.300000 0
8.300000 0.300000 0
8.400000 0.300000 0
8.500000 0.300000 0
8.600000 0.300000 0
8.700000 0.300000 0
8.800000 0.300000 0
8.900000 0.300000 0
9.000000 0.300000 0
9.100000 0.300000 0
9.200000 0.300000 0
9.300000 0.300000 0
9.400000 0.300000 0
9.500000 0.300000 0
9.600000 0.300000 0
9.700000 0.300000 0
9.800000 0.300000 0
9.900000 0.300000 0
10.000000 0.300000 0
0.000000 0.400000 0
0.100000 0.400000 0
0.200000 0.400000 0
0.300000 0.400000 0
0.400000 0.400000 0
0.500000 0.400000 0
0.600000 0.400000 0
0.700000 0.400000 0
0.800000 0.400000 0
0.900000 0.400000 0
1.000000 0.400000 0
1.100000 0.400000 0
1.200000 0.400000 0
1.300000 0.400000 0
1.400000 0.400000 0
1.500000 0.400000 0
1.600000 0.400000 0
1.700000 0.400000 0
1.800000 0.400000 0
1.900000 0.400000 0
2.000000 0.400000 0
2.100000 0.400000 0
2.200000 0.400000 0
2.300000 0.400000 0
2.400000 0.400000 0
2.500000 0.400000 0
2.600000 0.400000 0
2.700000 0.400000 0
2.800000 0.400000 0
2.900000 0.400000 0
3.000000 0.400000 0
3.100000 0.400000 0
3.200000 0.400000 0
3.300000 0.400000 0
3.400000 0.400000 0
3.500000 0.400000 0
3.600000 0.400000 0
3.700000 0.400000 0
3.800000 0.400000 0
3.900000 0.400000 0
4.000000 0.400000 0
4.100000 0.400000 0
4.200000 0.400000 0
4.300000 0.400000 0
4.400000 0.400000 0
4.500000 0.400000 0
4.600000 0.400000 0
4.700000 0.400000 0
4.800000 0.400000 0
4.900000 0.400000 0
5.000000 0.400000 0
5.100000 0.400000 0
5.200000 0.400000 0
5.300000 0.400000 0
5.400000 0.400000 0
5.500000 0.400000 0
5.600000 0.400000 0
5.700000 0.400000 0
5.800000 0.400000 0
5.900000 0.400000 0
6.000000 0.400000 0
6.100000 0.400000 0
6.200000 0.400000 0
6.300000 0.400000 0
6.400000 0.400000 0
6.500000 0.400000 0
6.600000 0.400000 0
6.700000 0.400000 0
6.800000 0.400000 0
6.900000 0.400000 0
7.000000 0.400000 0
7.100000 0.400000 0
7.200000 0.400000 0
7.300000 0.400000 0
7.400000 0.400000 0
7.500000 0.400000 0
7.600000 0.400000 0
7.700000 0.400000 0
7.800000 0.400000 0
7.900000 0.400000 0
8.000000 0.400000 0
8.100000 0.400000 0
8.200000 0.400000 0
8.300000 0.400000 0
8.400000 0.400000 0
8.500000 0.400000 0
8.600000 0.400000 0
[...]
POINT_DATA 2121 

VECTORS velocity float
0.500000 0.000000 0
-0.000003 0.000000 0
-0.000014 0.000000 0
-0.000028 0.000000 0
-0.000043 0.000000 0
-0.000053 0.000000 0
-0.000058 0.000000 0
-0.000057 0.000000 0
-0.000052 0.000000 0
-0.000042 0.000000 0
-0.000026 0.000000 0
-0.000005 0.000000 0
0.000020 0.000000 0
0.000049 0.000000 0
0.000082 0.000000 0
0.000118 0.000000 0
0.000157 0.000000 0
0.000201 0.000000 0
0.000252 0.000000 0
0.000313 0.000000 0
0.000396 0.000000 0
0.000519 0.000000 0
0.000713 0.000000 0
0.001081 0.000000 0
0.001583 0.000000 0
0.002139 0.000000 0
0.002485 0.000000 0
0.002783 0.000000 0
0.003099 0.000000 0
0.003344 0.000000 0
0.003394 0.000000 0
0.003203 0.000000 0
0.002727 0.000000 0
0.002115 0.000000 0
-0.000598 0.000000 0
-0.005853 0.000000 0
-0.013154 0.000000 0
-0.022139 0.000000 0
-0.027037 0.000000 0
-0.029892 0.000000 0
-0.019940 0.000000 0
-0.005032 0.000000 0
0.007347 0.000000 0
0.014712 0.000000 0
0.017779 0.000000 0
0.018033 0.000000 0
0.015980 0.000000 0
0.012781 0.000000 0
0.010590 0.000000 0
0.010235 0.000000 0
0.010667 0.000000 0
0.000670 0.000000 0
0.006376 0.000000 0
0.015240 0.000000 0
0.005026 0.000000 0
-0.004708 0.000000 0
-0.010324 0.000000 0
-0.012715 0.000000 0
-0.012371 0.000000 0
-0.011622 0.000000 0
-0.012197 0.000000 0
-0.012015 0.000000 0
-0.011132 0.000000 0
-0.009955 0.000000 0
-0.008243 0.000000 0
-0.006729 0.000000 0
-0.004588 0.000000 0
0.000424 0.000000 0
0.008736 0.000000 0
0.015979 0.000000 0
0.022224 0.000000 0
0.031862 0.000000 0
0.008631 0.000000 0
-0.004849 0.000000 0
-0.010167 0.000000 0
-0.012517 0.000000 0
-0.012585 0.000000 0
-0.010982 0.000000 0
-0.008752 0.000000 0
-0.006129 0.000000 0
-0.003488 0.000000 0
-0.000795 0.000000 0
0.001784 0.000000 0
0.004259 0.000000 0
0.006313 0.000000 0
0.006774 0.000000 0
0.004407 0.000000 0
0.023407 0.000000 0
0.020407 0.000000 0
0.006527 0.000000 0
0.010457 0.000000 0
0.009025 0.000000 0
-0.007243 0.000000 0
-0.024110 0.000000 0
-0.018806 0.000000 0
-0.008649 0.000000 0
-0.004052 0.000000 0
-0.002313 0.000000 0
-0.002056 0.000000 0
-0.002503 0.000000 0
-0.002430 0.000000 0
1.000000 0.000264 0
1.000206 0.000461 0
1.000767 0.000168 0
1.001835 -0.000474 0
1.003544 -0.001216 0
1.005958 -0.001940 0
1.009168 -0.002799 0
1.013289 -0.003805 0
1.018468 -0.004995 0
1.024899 -0.006424 0
1.032837 -0.008163 0
1.042620 -0.010304 0
1.054688 -0.012959 0
1.069602 -0.016255 0
1.088057 -0.020323 0
1.110893 -0.025273 0
1.139069 -0.031146 0
1.173584 -0.037834 0
1.215313 -0.044959 0
1.264684 -0.051707 0
1.321203 -0.056587 0
1.382203 -0.057636 0
1.443950 -0.052015 0
1.493916 -0.037439 0
1.524209 -0.016507 0
1.531722 0.006090 0
1.516327 0.026707 0
1.479905 0.044054 0
1.427467 0.058781 0
1.362381 0.070616 0
1.287495 0.079161 0
1.205771 0.084000 0
1.120146 0.082919 0
1.032281 0.092642 0
0.938270 0.087373 0
0.862080 0.046399 0
0.812055 -0.016368 0
0.830582 -0.104127 0
0.956519 -0.198441 0
1.200245 -0.251525 0
1.486453 -0.217358 0
1.693129 -0.121423 0
1.784343 -0.021398 0
1.773123 0.053058 0
1.695891 0.096683 0
1.587730 0.115408 0
1.473760 0.114406 0
1.362990 0.104338 0
1.262098 0.102000 0
1.206339 0.121877 0
1.200321 0.141245 0
1.157012 0.132689 0
0.893058 0.135021 0
0.639249 0.112699 0
0.552507 0.021259 0
0.571229 -0.065410 0
0.642691 -0.110740 0
0.742183 -0.126299 0
0.861325 -0.122724 0
0.979746 -0.116153 0
1.091778 -0.113382 0
1.205179 -0.108785 0
1.308805 -0.097964 0
1.395858 -0.081911 0
1.462846 -0.061451 0
1.504855 -0.039330 0
1.519383 -0.012055 0
1.513964 0.028926 0
1.498617 0.088304 0
1.449752 0.153690 0
1.325179 0.214378 0
1.134993 0.210154 0
0.965301 0.087959 0
0.875604 -0.035670 0
0.885918 -0.088994 0
0.964868 -0.104958 0
1.054542 -0.099277 0
1.140299 -0.088647 0
1.216651 -0.073065 0
1.277349 -0.053426 0
1.319093 -0.031365 0
1.340309 -0.007926 0
1.338909 0.016215 0
1.316731 0.039947 0
1.274329 0.061020 0
1.203085 0.067545 0
1.097949 0.088048 0
0.953177 0.176236 0
0.810857 0.181980 0
0.803373 0.085505 0
0.876970 0.060861 0
0.945466 0.044642 0
0.961175 -0.052539 0
0.922333 -0.160736 0
0.879768 -0.161061 0
0.895122 -0.083206 0
0.933348 -0.029630 0
0.965544 -0.007789 0
0.983971 0.000339 0
0.988787 -0.001459 0
0.995117 -0.004932 0
1.000000 -0.000194 0
1.000797 -0.000750 0
1.002180 -0.001619 0
1.004125 -0.002767 0
1.006574 -0.004112 0
1.009732 -0.005613 0
1.013656 -0.007322 0
1.018437 -0.009291 0
1.024194 -0.011600 0
1.031095 -0.014359 0
1.039365 -0.017713 0
1.049309 -0.021844 0
1.061330 -0.026974 0
1.075951 -0.033362 0
1.093850 -0.041286 0
1.115884 -0.051007 0
1.143119 -0.062687 0
1.176802 -0.076241 0
1.218285 -0.091099 0
1.268816 -0.105889 0
1.329245 -0.117519 0
1.397622 -0.122749 0
1.472434 -0.111715 0
1.532355 -0.080264 0
1.568561 -0.037811 0
1.578881 0.007876 0
1.564815 0.051810 0
1.527746 0.088852 0
1.473027 0.117515 0
1.405605 0.139964 0
1.328105 0.156601 0
1.243760 0.167340 0
1.154453 0.173480 0
1.056689 0.181865 0
0.988246 0.170190 0
0.911420 0.126204 0
0.766685 0.031487 0
0.667176 -0.144476 0
0.683337 -0.369675 0
0.905732 -0.529946 0
1.274421 -0.492896 0
1.537290 -0.297902 0
1.703793 -0.080006 0
1.756401 0.088439 0
1.717303 0.185381 0
1.627732 0.222119 0
1.520728 0.224727 0
1.390743 0.211650 0
1.317422 0.156639 0
1.411696 0.061764 0
1.399237 0.049314 0
1.156760 0.307251 0
0.931800 0.517751 0
0.825470 0.340539 0
0.776583 0.068008 0
0.740180 -0.090196 0
0.726994 -0.170966 0
0.746369 -0.218646 0
0.811896 -0.237575 0
0.929717 -0.230465 0
1.055703 -0.225445 0
1.170222 -0.217038 0
1.274664 -0.190690 0
1.357285 -0.154052 0
1.417371 -0.109008 0
1.449844 -0.056548 0
1.452405 -0.009119 0
1.425543 0.020756 0
1.384890 0.064202 0
1.322737 0.173428 0
1.226972 0.314749 0
1.158089 0.359869 0
1.107099 0.259381 0
1.054318 0.079375 0
1.044669 -0.089272 0
1.055485 -0.168631 0
1.073386 -0.175439 0
1.102162 -0.162115 0
1.145330 -0.137056 0
1.191253 -0.102448 0
1.229821 -0.062964 0
1.256582 -0.019820 0
1.263816 0.023574 0
1.250990 0.064577 0
1.213865 0.113643 0
1.133349 0.176377 0
1.022987 0.249906 0
0.954155 0.287091 0
0.983399 0.149803 0
0.946415 -0.066114 0
0.891628 -0.142093 0
0.893780 -0.084205 0
0.872649 0.023133 0
0.783836 0.081407 0
0.686831 0.027212 0
0.674167 -0.053579 0
0.723573 -0.070420 0
0.785205 -0.050621 0
0.834362 -0.023242 0
0.866555 -0.011145 0
0.877563 -0.012546 0
1.000000 -0.000524 0
1.000588 -0.001707 0
1.001744 -0.003155 0
1.003440 -0.004863 0
1.005684 -0.006818 0
1.008558 -0.009018 0
1.012121 -0.011500 0
1.016443 -0.014339 0
1.021618 -0.017649 0
1.027784 -0.021591 0
1.035130 -0.026374 0
1.043908 -0.032265 0
1.054466 -0.039597 0
1.067271 -0.048772 0
1.082964 -0.060254 0
1.102413 -0.074540 0
1.126831 -0.092061 0
1.157822 -0.112999 0
1.197391 -0.136973 0
1.248159 -0.162666 0
1.313616 -0.185393 0
1.392862 -0.200826 0
1.495177 -0.186749 0
1.574550 -0.133567 0
1.618000 -0.063036 0
1.628092 0.009833 0
1.610433 0.077839 0
1.570484 0.135839 0
1.510378 0.180919 0
1.436911 0.215535 0
1.352826 0.241003 0
1.259924 0.257649 0
1.172510 0.269985 0
1.095035 0.258845 0
0.987636 0.232639 0
0.731609 0.267956 0
0.516676 0.227872 0
0.423944 -0.020783 0
0.348532 -0.437002 0
0.473948 -0.842614 0
0.770820 -0.848920 0
1.157329 -0.550799 0
1.366424 -0.240513 0
1.520117 0.039543 0
1.588218 0.225346 0
1.567047 0.311978 0
1.477514 0.351390 0
1.374006 0.307639 0
1.334150 0.081043 0
1.213650 0.040058 0
0.952314 0.396176 0
0.715760 0.600121 0
0.673922 0.466306 0
0.666545 0.267912 0
0.616360 0.106543 0
0.572639 -0.015826 0
0.563307 -0.116934 0
0.585959 -0.211206 0
0.625628 -0.306077 0
0.736014 -0.359965 0
0.931962 -0.353891 0
1.083422 -0.327751 0
1.191934 -0.285032 0
1.273929 -0.224622 0
1.341958 -0.154014 0
1.379092 -0.074368 0
1.348340 0.012242 0
1.247646 0.096437 0
1.101170 0.191107 0
0.980033 0.311604 0
0.932932 0.379022 0
0.965516 0.330024 0
1.026519 0.191726 0
1.082968 0.026756 0
1.101413 -0.090164 0
1.058741 -0.133678 0
0.991887 -0.145956 0
0.939380 -0.160594 0
0.930384 -0.162158 0
0.982053 -0.137919 0
1.065105 -0.096696 0
1.106691 -0.041922 0
1.116717 0.021805 0
1.120816 0.089897 0
1.169204 0.178661 0
1.194485 0.258422 0
1.152278 0.267241 0
1.084806 0.215824 0
1.002055 0.189719 0
0.824340 0.177276 0
0.624681 0.113497 0
0.483953 0.063621 0
0.425032 0.057405 0
0.442278 0.025082 0
0.498824 -0.051391 0
0.536412 -0.119948 0
0.575222 -0.140668 0
0.625924 -0.118577 0
0.674305 -0.081010 0
0.719040 -0.044660 0
0.732160 -0.026823 0
1.000000 -0.000773 0
1.000419 -0.002482 0
1.001395 -0.004466 0
1.002836 -0.006703 0
1.004781 -0.009224 0
1.007285 -0.012045 0
1.010386 -0.015202 0
1.014116 -0.018783 0
1.018536 -0.022937 0
1.023752 -0.027867 0
1.029904 -0.033833 0
1.037175 -0.041176 0
1.045824 -0.050333 0
1.056219 -0.061857 0
1.068916 -0.076426 0
1.084679 -0.094872 0
1.104824 -0.118094 0
1.131307 -0.146799 0
1.166493 -0.181434 0
1.215012 -0.222113 0
1.283746 -0.262223 0
1.370523 -0.304311 0
1.543280 -0.293404 0
1.649718 -0.203087 0
1.695321 -0.091355 0
1.701550 0.015440 0
1.677971 0.109415 0
1.630810 0.188904 0
1.562260 0.251084 0
1.473674 0.297513 0
1.373062 0.333586 0
1.276128 0.347652 0
1.159225 0.338365 0
1.115832 0.366735 0
1.095061 0.533612 0
1.015412 0.597160 0
0.871530 0.339148 0
0.595786 0.023665 0
0.504867 -0.419682 0
0.442527 -0.952239 0
0.445367 -1.176282 0
0.736396 -0.893510 0
1.002507 -0.442799 0
1.173571 -0.133360 0
1.293621 0.138446 0
1.365713 0.332818 0
1.350456 0.417763 0
1.310116 0.355009 0
1.185205 0.316990 0
0.741040 0.443595 0
0.470067 0.547200 0
0.464939 0.585638 0
0.414816 0.566960 0
0.342849 0.398095 0
0.275048 0.161909 0
0.252882 -0.037148 0
0.304573 -0.184291 0
0.439183 -0.280972 0
0.545922 -0.387635 0
0.587642 -0.536803 0
0.746647 -0.572857 0
0.973948 -0.477015 0
1.084602 -0.381202 0
1.149738 -0.304081 0
1.213620 -0.214176 0
1.272504 -0.062934 0
1.272038 0.122323 0
1.216540 0.267922 0
1.134823 0.331810 0
1.079938 0.341662 0
1.054079 0.329263 0
1.016932 0.266278 0
0.976402 0.141926 0
0.955200 0.004479 0
0.951000 -0.065048 0
0.948952 -0.059108 0
0.911864 -0.056080 0
0.822914 -0.100615 0
0.727040 -0.179731 0
0.712054 -0.237171 0
0.806600 -0.187604 0
0.943809 -0.071435 0
1.043484 0.009448 0
1.073922 0.012089 0
1.012139 0.039973 0
0.913269 0.193303 0
0.822499 0.359585 0
0.746683 0.437314 0
0.674043 0.410269 0
0.653757 0.311260 0
0.659543 0.198294 0
0.665303 0.115444 0
0.699066 0.064808 0
0.740292 0.007615 0
0.734990 -0.066922 0
0.681264 -0.129976 0
0.626246 -0.159932 0
0.605747 -0.149704 0
0.614844 -0.116358 0
0.634137 -0.068999 0
0.642982 -0.038863 0
1.000000 -0.000934 0
1.000149 -0.003090 0
1.001059 -0.005567 0
1.002205 -0.008243 0
1.003785 -0.011262 0
1.005870 -0.014618 0
1.008451 -0.018326 0
1.011497 -0.022484 0
1.015020 -0.027280 0
1.019111 -0.032954 0
1.023857 -0.039792 0
1.029332 -0.048180 0
1.035686 -0.058637 0
1.043098 -0.071861 0
1.052026 -0.088711 0
1.062788 -0.110445 0
1.076734 -0.138687 0
1.096189 -0.174666 0
1.122618 -0.220676 0
1.164202 -0.279917 0
1.223330 -0.340902 0
1.320738 -0.460360 0
1.637780 -0.465944 0
1.733960 -0.285609 0
1.747998 -0.114870 0
1.743284 0.027180 0
1.725428 0.148576 0
1.693331 0.251548 0
1.639721 0.338052 0
1.554695 0.404730 0
1.435111 0.438546 0
1.279281 0.471482 0
1.095667 0.430278 0
0.869597 0.323006 0
0.926635 0.333055 0
1.066122 0.491483 0
0.888923 0.647494 0
0.753890 0.345876 0
0.787011 -0.283748 0
0.678874 -0.783118 0
0.517936 -1.142793 0
0.499652 -1.107943 0
0.741438 -0.677693 0
0.916775 -0.251575 0
1.034748 0.033200 0
1.120270 0.255138 0
1.167276 0.406983 0
1.165857 0.472885 0
1.008780 0.650114 0
0.770527 0.755191 0
0.660113 0.672273 0
0.557928 0.655366 0
0.504204 0.588391 0
0.511294 0.407675 0
0.490900 0.196505 0
0.443396 -0.045356 0
0.416188 -0.303240 0
0.529302 -0.452561 0
0.762639 -0.454541 0
0.817685 -0.560695 0
0.753889 -0.740202 0
0.872974 -0.665710 0
1.000272 -0.460826 0
1.006616 -0.353645 0
1.005769 -0.276785 0
1.067715 -0.132789 0
1.120018 0.068202 0
1.117021 0.233648 0
1.073099 0.327704 0
0.991681 0.392344 0
0.909652 0.442025 0
0.851092 0.407697 0
0.784478 0.253455 0
0.696790 0.052155 0
0.636896 -0.083919 0
0.644937 -0.094544 0
0.698554 -0.019920 0
0.762301 0.024229 0
0.793672 -0.051300 0
0.759774 -0.217481 0
0.735153 -0.328453 0
0.814256 -0.278808 0
0.879379 -0.108308 0
0.828142 0.121240 0
0.634257 0.339312 0
0.460273 0.448061 0
0.454971 0.433826 0
0.576299 0.364280 0
0.636260 0.282646 0
0.641684 0.191777 0
0.638969 0.101951 0
0.649016 0.024098 0
0.687356 -0.017584 0
0.739749 -0.010841 0
0.767061 0.007637 0
0.750158 -0.011203 0
0.703431 -0.065151 0
0.647916 -0.107176 0
0.625372 -0.109399 0
0.621846 -0.072797 0
0.626407 -0.044966 0
1.000000 -0.000913 0
0.999867 -0.003528 0
1.000601 -0.006516 0
1.001544 -0.009424 0
1.002721 -0.012883 0
1.004301 -0.016706 0
1.006314 -0.020825 0
1.008629 -0.025347 0
1.011155 -0.030545 0
1.014023 -0.036698 0
1.017279 -0.044050 0
1.020792 -0.053001 0
1.024661 -0.064095 0
1.028625 -0.078193 0
1.033483 -0.096112 0
1.038105 -0.119577 0
1.043808 -0.151492 0
1.053800 -0.192680 0
1.066078 -0.249444 0
1.095643 -0.322823 0
1.114823 -0.418757 0
1.266449 -0.718761 0
1.642594 -0.706627 0
1.565971 -0.313307 0
1.470260 -0.100681 0
1.457326 0.038008 0
1.457284 0.159366 0
1.498710 0.274609 0
1.559357 0.389718 0
1.570134 0.502121 0
1.524647 0.608996 0
1.403682 0.687092 0
1.251676 0.748046 0
1.001880 0.535764 0
0.721825 0.337083 0
0.460486 0.634869 0
0.407001 0.651376 0
0.633602 0.125574 0
0.710930 -0.344670 0
0.687066 -0.683168 0
0.578688 -0.997064 0
0.453605 -1.117017 0
0.534734 -0.859927 0
0.710804 -0.426674 0
0.854705 -0.065054 0
0.928402 0.200285 0
0.985891 0.372171 0
1.008846 0.513501 0
0.952770 0.712315 0
0.979959 0.792258 0
0.931951 0.759795 0
0.834925 0.741542 0
0.813688 0.613589 0
0.841095 0.411394 0
0.896808 0.229802 0
0.936353 0.037559 0
0.905101 -0.270201 0
0.765868 -0.627428 0
0.825107 -0.676023 0
0.957339 -0.528057 0
0.865196 -0.628150 0
0.774820 -0.723403 0
0.822875 -0.514848 0
0.781120 -0.309582 0
0.681194 -0.275280 0
0.589867 -0.177188 0
0.573844 0.073013 0
0.621725 0.314838 0
0.649928 0.457147 0
0.618987 0.505106 0
0.587636 0.469848 0
0.570734 0.391448 0
0.531702 0.296225 0
0.437118 0.152057 0
0.326568 -0.013198 0
0.251296 -0.120768 0
0.276465 -0.173447 0
0.436866 -0.195736 0
0.654474 -0.177205 0
0.793716 -0.178654 0
0.789885 -0.242089 0
0.728617 -0.215662 0
0.699984 -0.004439 0
0.681134 0.257210 0
0.709266 0.407842 0
0.820303 0.372588 0
0.886714 0.243558 0
0.790859 0.256025 0
0.701905 0.344883 0
0.673724 0.308550 0
0.656635 0.190963 0
0.612069 0.067057 0
0.556871 -0.025925 0
0.536377 -0.072089 0
0.573200 -0.077330 0
0.634737 -0.066345 0
0.676598 -0.057689 0
0.680023 -0.071645 0
0.650665 -0.090288 0
0.616473 -0.070033 0
0.617183 -0.048551 0
1.000000 -0.000791 0
0.999865 -0.003678 0
0.999940 -0.007238 0
1.000837 -0.010357 0
1.001643 -0.014012 0
1.002677 -0.018206 0
1.004120 -0.022649 0
1.005694 -0.027320 0
1.007069 -0.032669 0
1.008662 -0.039073 0
1.010565 -0.046556 0
1.012011 -0.055557 0
1.013644 -0.066466 0
1.013441 -0.080678 0
1.015426 -0.098187 0
1.015512 -0.120767 0
1.009475 -0.154377 0
1.010045 -0.196932 0
1.001344 -0.262516 0
1.004201 -0.328659 0
0.988936 -0.511706 0
1.105970 -0.988129 0
0.792648 -0.652190 0
-0.002185 0.000000 0
-0.003593 0.000000 0
0.585949 0.046381 0
0.642840 0.107189 0
0.547275 0.149472 0
0.800685 0.266626 0
1.214003 0.439437 0
1.346859 0.604996 0
1.334628 0.744451 0
1.300506 0.832076 0
1.215158 0.852853 0
0.808357 0.874446 0
0.496017 0.806305 0
0.586989 0.474376 0
0.621514 0.041943 0
0.586990 -0.337216 0
0.581585 -0.650879 0
0.552120 -0.909336 0
0.463207 -1.063994 0
0.438482 -0.934896 0
0.547113 -0.571551 0
0.702351 -0.184402 0
0.838926 0.123948 0
0.935495 0.326534 0
0.960873 0.506002 0
0.956069 0.678996 0
1.021275 0.776005 0
1.016688 0.817302 0
1.024727 0.773625 0
1.091731 0.582216 0
1.153484 0.324550 0
1.178228 0.101243 0
1.168532 -0.053654 0
1.134076 -0.132760 0
0.998691 -0.372572 0
0.752664 -0.646016 0
0.670672 -0.600788 0
0.609652 -0.557687 0
0.521727 -0.623393 0
0.576137 -0.467130 0
0.622771 -0.211968 0
0.521741 -0.085536 0
0.307733 -0.025444 0
0.221257 0.036339 0
0.298966 0.157560 0
0.415968 0.330439 0
0.513326 0.454633 0
0.582950 0.490275 0
0.596423 0.463627 0
0.573688 0.387067 0
0.516024 0.257286 0
0.394238 0.101900 0
0.251141 -0.044443 0
0.170965 -0.205493 0
0.177067 -0.353783 0
0.274939 -0.408153 0
0.429511 -0.352894 0
0.534932 -0.263355 0
0.546279 -0.188908 0
0.594452 -0.060828 0
0.708306 0.111957 0
0.837729 0.200143 0
0.899915 0.270613 0
0.814946 0.463270 0
0.672558 0.549089 0
0.686364 0.399780 0
0.729800 0.237046 0
0.726396 0.163605 0
0.712238 0.123862 0
0.694402 0.058109 0
0.658206 -0.027169 0
0.613196 -0.090723 0
0.593691 -0.114601 0
0.600301 -0.110436 0
0.623191 -0.081242 0
0.627574 -0.045849 0
0.615258 -0.039314 0
0.618921 -0.046788 0
1.000000 -0.000767 0
1.000042 -0.003454 0
0.999738 -0.007482 0
0.999984 -0.011121 0
1.000186 -0.014716 0
1.000927 -0.019176 0
1.002029 -0.023837 0
1.003082 -0.028290 0
1.002861 -0.033507 0
1.003070 -0.040190 0
1.004524 -0.047394 0
1.003226 -0.056074 0
1.004072 -0.065519 0
0.999717 -0.079970 0
1.001589 -0.098178 0
0.990804 -0.113621 0
0.991023 -0.146020 0
0.963342 -0.184546 0
0.964119 -0.243596 0
0.891525 -0.310411 0
0.903850 -0.520523 0
0.624199 -0.635747 0
0.000000 0.001170 0
-0.682590 0.282230 0
-0.596211 0.000000 0
0.000000 0.000000 0
0.052368 0.204027 0
0.105177 0.116762 0
0.015089 -0.277013 0
0.578542 -0.044056 0
0.928522 0.488369 0
1.039353 0.733443 0
1.051308 0.867514 0
0.961885 1.027910 0
0.803441 1.056221 0
0.749270 0.856234 0
0.705726 0.525876 0
0.658593 0.125570 0
0.629518 -0.304744 0
0.595813 -0.648302 0
0.573655 -0.878690 0
0.508075 -1.003383 0
0.439681 -0.943836 0
0.491818 -0.690547 0
0.625947 -0.356871 0
0.769789 -0.032863 0
0.878419 0.250219 0
0.933055 0.492922 0
0.983826 0.651909 0
1.055473 0.731634 0
1.130025 0.756337 0
1.230523 0.666495 0
1.312943 0.484828 0
1.300644 0.324892 0
1.205543 0.214749 0
1.085014 0.081707 0
0.985298 -0.100365 0
0.970057 -0.246021 0
0.769847 -0.348009 0
0.575761 -0.385051 0
0.496251 -0.479209 0
0.372186 -0.689892 0
0.386371 -0.615897 0
0.538109 -0.255190 0
0.594862 0.039754 0
0.565459 0.123292 0
0.534966 0.081775 0
0.493748 0.120122 0
0.484363 0.242783 0
0.507199 0.338120 0
0.534202 0.386748 0
0.579493 0.400707 0
0.645516 0.376620 0
0.696985 0.331504 0
0.692309 0.251682 0
0.652704 0.102502 0
0.608004 -0.099376 0
0.521019 -0.299712 0
0.413250 -0.429651 0
0.360312 -0.438649 0
0.418767 -0.358859 0
0.475758 -0.275184 0
0.487270 -0.166467 0
0.505212 0.013932 0
0.526641 0.216232 0
0.502553 0.395372 0
0.546999 0.470914 0
0.749508 0.384606 0
0.879882 0.287641 0
0.869868 0.268518 0
0.820038 0.208525 0
0.789372 0.099051 0
0.785854 0.028107 0
0.790229 0.009117 0
0.766913 -0.012815 0
0.711281 -0.053450 0
0.653662 -0.087188 0
0.614916 -0.098918 0
0.619000 -0.082355 0
0.674543 -0.061379 0
0.686232 -0.055820 0
1.000000 -0.000821 0
1.000045 -0.003401 0
0.999739 -0.007173 0
0.999530 -0.010799 0
0.999281 -0.014949 0
0.999589 -0.020042 0
0.999720 -0.024798 0
1.000541 -0.028146 0
0.999505 -0.032651 0
0.998473 -0.040730 0
0.997808 -0.046707 0
0.998791 -0.055099 0
0.994772 -0.062951 0
0.991417 -0.078190 0
0.982909 -0.089269 0
0.978234 -0.110196 0
0.967593 -0.126910 0
0.944628 -0.170024 0
0.912619 -0.190696 0
0.856612 -0.268385 0
0.779648 -0.244375 0
0.467428 -0.181437 0
0.316429 -0.125150 0
0.000000 0.000000 0
0.000000 0.000000 0
0.000000 0.000000 0
0.000000 0.000000 0
0.196027 0.178751 0
0.101951 -0.206741 0
-0.049349 -0.473998 0
0.587096 0.144183 0
0.848324 0.621663 0
0.845538 0.909543 0
0.786887 1.100718 0
0.765524 1.087059 0
0.722417 0.904017 0
0.699227 0.565050 0
0.773043 0.118148 0
0.801585 -0.274439 0
0.758402 -0.595020 0
0.707875 -0.821602 0
0.634219 -0.930024 0
0.549100 -0.918643 0
0.536779 -0.757820 0
0.612238 -0.462377 0
0.726677 -0.128528 0
0.813583 0.163264 0
0.878379 0.400590 0
0.968674 0.556574 0
1.057645 0.629802 0
1.154438 0.642248 0
1.237420 0.590702 0
1.245531 0.512090 0
1.179090 0.431945 0
1.140279 0.316868 0
1.163340 0.166587 0
1.057044 -0.017807 0
0.829081 -0.157126 0
0.699226 -0.251725 0
0.686835 -0.327197 0
0.784240 -0.354117 0