# vtk DataFile Version 2.0
generated by CFD-lab course output (written by Tobias Neckel) 
ASCII

DATASET STRUCTURED_GRID
DIMENSIONS  101 21 1 
POINTS 2121 float

0.000000 0.000000 0
0.100000 0.000000 0
0.200000 0.000000 0
0.300000 0.000000 0
0.400000 0.000000 0
0.500000 0.000000 0
0.600000 0.000000 0
0.700000 0.000000 0
0.800000 0.000000 0
0.900000 0.000000 0
1.000000 0.000000 0
1.100000 0.000000 0
1.200000 0.000000 0
1.300000 0.000000 0
1.400000 0.000000 0
1.500000 0.000000 0
1.600000 0.000000 0
1.700000 0.000000 0
1.800000 0.000000 0
1.900000 0.000000 0
2.000000 0.000000 0
2.100000 0.000000 0
2.200000 0.000000 0
2.300000 0.000000 0
2.400000 0.000000 0
2.500000 0.000000 0
2.600000 0.000000 0
2.700000 0.000000 0
2.800000 0.000000 0
2.900000 0.000000 0
3.000000 0.000000 0
3.100000 0.000000 0
3.200000 0.000000 0
3.300000 0.000000 0
3.400000 0.000000 0
3.500000 0.000000 0
3.600000 0.000000 0
3.700000 0.000000 0
3.800000 0.000000 0
3.900000 0.000000 0
4.000000 0.000000 0
4.100000 0.000000 0
4.200000 0.000000 0
4.300000 0.000000 0
4.400000 0.000000 0
4.500000 0.000000 0
4.600000 0.000000 0
4.700000 0.000000 0
4.800000 0.000000 0
4.900000 0.000000 0
5.000000 0.000000 0
5.100000 0.000000 0
5.200000 0.000000 0
5.300000 0.000000 0
5.400000 0.000000 0
5.500000 0.000000 0
5.600000 0.000000 0
5.700000 0.000000 0
5.800000 0.000000 0
5.900000 0.000000 0
6.000000 0.000000 0
6.100000 0.000000 0
6.200000 0.000000 0
6.300000 0.000000 0
6.400000 0.000000 0
6.500000 0.000000 0
6.600000 0.000000 0
6.700000 0.000000 0
6.800000 0.000000 0
6.900000 0.000000 0
7.000000 0.000000 0
7.100000 0.000000 0
7.200000 0.000000 0
7.300000 0.000000 0
7.400000 0.000000 0
7.500000 0.000000 0
7.600000 0.000000 0
7.700000 0.000000 0
7.800000 0.000000 0
7.900000 0.000000 0
8.000000 0.000000 0
8.100000 0.000000 0
8.200000 0.000000 0
8.300000 0.000000 0
8.400000 0.000000 0
8.500000 0.000000 0
8.600000 0.000000 0
8.700000 0.000000 0
8.800000 0.000000 0
8.900000 0.000000 0
9.000000 0.000000 0
9.100000 0.000000 0
9.200000 0.000000 0
9.300000 0.000000 0
9.400000 0.000000 0
9.500000 0.000000 0
9.600000 0.000000 0
9.700000 0.000000 0
9.800000 0.000000 0
9.900000 0.000000 0
10.000000 0.000000 0
0.000000 0.100000 0
0.100000 0.100000 0
0.200000 0.100000 0
0.300000 0.100000 0
0.400000 0.100000 0
0.500000 0.100000 0
0.600000 0.100000 0
0.700000 0.100000 0
0.800000 0.100000 0
0.900000 0.100000 0
1.000000 0.100000 0
1.100000 0.100000 0
1.200000 0.100000 0
1.300000 0.100000 0
1.400000 0.100000 0
1.500000 0.100000 0
1.600000 0.100000 0
1.700000 0.100000 0
1.800000 0.100000 0
1.900000 0.100000 0
2.000000 0.100000 0
2.100000 0.100000 0
2.200000 0.100000 0
2.300000 0.100000 0
2.400000 0.100000 0
2.500000 0.100000 0
2.600000 0.100000 0
2.700000 0.100000 0
2.800000 0.100000 0
2.900000 0.100000 0
3.000000 0.100000 0
3.100000 0.100000 0
3.200000 0.100000 0
3.300000 0.100000 0
3.400000 0.100000 0
3.500000 0.100000 0
3.600000 0.100000 0
3.700000 0.100000 0
3.800000 0.100000 0
3.900000 0.100000 0
4.000000 0.100000 0
4.100000 0.100000 0
4.200000 0.100000 0
4.300000 0.100000 0
4.400000 0.100000 0
4.500000 0.100000 0
4.600000 0.100000 0
4.700000 0.100000 0
4.800000 0.100000 0
4.900000 0.100000 0
5.000000 0.100000 0
5.100000 0.100000 0
5.200000 0.100000 0
5.300000 0.100000 0
5.400000 0.100000 0
5.500000 0.100000 0
5.600000 0.100000 0
5.700000 0.100000 0
5.800000 0.100000 0
5.900000 0.100000 0
6.000000 0.100000 0
6.100000 0.100000 0
6.200000 0.100000 0
6.300000 0.100000 0
6.400000 0.100000 0
6.500000 0.100000 0
6.600000 0.100000 0
6.700000 0.100000 0
6.800000 0.100000 0
6.900000 0.100000 0
7.000000 0.100000 0
7.100000 0.100000 0
7.200000 0.100000 0
7.300000 0.100000 0
7.400000 0.100000 0
7.500000 0.100000 0
7.600000 0.100000 0
7.700000 0.100000 0
7.800000 0.100000 0
7.900000 0.100000 0
8.000000 0.100000 0
8.100000 0.100000 0
8.200000 0.100000 0
8.300000 0.100000 0
8.400000 0.100000 0
8.500000 0.100000 0
8.600000 0.100000 0
8.700000 0.100000 0
8.800000 0.100000 0
8.900000 0.100000 0
9.000000 0.100000 0
9.100000 0.100000 0
9.200000 0.100000 0
9.300000 0.100000 0
9.400000 0.100000 0
9.500000 0.100000 0
9.600000 0.100000 0
9.700000 0.100000 0
9.800000 0.100000 0
9.900000 0.100000 0
10.000000 0.100000 0
0.000000 0.200000 0
0.100000 0.200000 0
0.200000 0.200000 0
0.300000 0.200000 0
0.400000 0.200000 0
0.500000 0.200000 0
0.600000 0.200000 0
0.700000 0.200000 0
0.800000 0.200000 0
0.900000 0.200000 0
1.000000 0.200000 0
1.100000 0.200000 0
1.200000 0.200000 0
1.300000 0.200000 0
1.400000 0.200000 0
1.500000 0.200000 0
1.600000 0.200000 0
1.700000 0.200000 0
1.800000 0.200000 0
1.900000 0.200000 0
2.000000 0.200000 0
2.100000 0.200000 0
2.200000 0.200000 0
2.300000 0.200000 0
2.400000 0.200000 0
2.500000 0.200000 0
2.600000 0.200000 0
2.700000 0.200000 0
2.800000 0.200000 0
2.900000 0.200000 0
3.000000 0.200000 0
3.100000 0.200000 0
3.200000 0.200000 0
3.300000 0.200000 0
3.400000 0.200000 0
3.500000 0.200000 0
3.600000 0.200000 0
3.700000 0.200000 0
3.800000 0.200000 0
3.900000 0.200000 0
4.000000 0.200000 0
4.100000 0.200000 0
4.200000 0.200000 0
4.300000 0.200000 0
4.400000 0.200000 0
4.500000 0.200000 0
4.600000 0.200000 0
4.700000 0.200000 0
4.800000 0.200000 0
4.900000 0.200000 0
5.000000 0.200000 0
5.100000 0.200000 0
5.200000 0.200000 0
5.300000 0.200000 0
5.400000 0.200000 0
5.500000 0.200000 0
5.600000 0.200000 0
5.700000 0.200000 0
5.800000 0.200000 0
5.900000 0.200000 0
6.000000 0.200000 0
6.100000 0.200000 0
6.200000 0.200000 0
6.300000 0.200000 0
6.400000 0.200000 0
6.500000 0.200000 0
6.600000 0.200000 0
6.700000 0.200000 0
6.800000 0.200000 0
6.900000 0.200000 0
7.000000 0.200000 0
7.100000 0.200000 0
7.200000 0.200000 0
7.300000 0.200000 0
7.400000 0.200000 0
7.500000 0.200000 0
7.600000 0.200000 0
7.700000 0.200000 0
7.800000 0.200000 0
7.900000 0.200000 0
8.000000 0.200000 0
8.100000 0.200000 0
8.200000 0.200000 0
8.300000 0.200000 0
8.400000 0.200000 0
8.500000 0.200000 0
8.600000 0.200000 0
8.700000 0.200000 0
8.800000 0.200000 0
8.900000 0.200000 0
9.000000 0.200000 0
9.100000 0.200000 0
9.200000 0.200000 0
9.300000 0.200000 0
9.400000 0.200000 0
9.500000 0.200000 0
9.600000 0.200000 0
9.700000 0.200000 0
9.800000 0.200000 0
9.900000 0.200000 0
10.000000 0.200000 0
0.000000 0.300000 0
0.100000 0.300000 0
0.200000 0.300000 0
0.300000 0.300000 0
0.400000 0.300000 0
0.500000 0.300000 0
0.600000 0.300000 0
0.700000 0.300000 0
0.800000 0.300000 0
0.900000 0.300000 0
1.000000 0.300000 0
1.100000 0.300000 0
1.200000 0.300000 0
1.300000 0.300000 0
1.400000 0.300000 0
1.500000 0.300000 0
1.600000 0.300000 0
1.700000 0.300000 0
1.800000 0.300000 0
1.900000 0.300000 0
2.000000 0.300000 0
2.100000 0.300000 0
2.200000 0.300000 0
2.300000 0.300000 0
2.400000 0.300000 0
2.500000 0.300000 0
2.600000 0.300000 0
2.700000 0.300000 0
2.800000 0.300000 0
2.900000 0.300000 0
3.000000 0.300000 0
3.100000 0.300000 0
3.200000 0.300000 0
3.300000 0.300000 0
3.400000 0.300000 0
3.500000 0.300000 0
3.600000 0.300000 0
3.700000 0.300000 0
3.800000 0.300000 0
3.900000 0.300000 0
4.000000 0.300000 0
4.100000 0.300000 0
4.200000 0.300000 0
4.300000 0.300000 0
4.400000 0.300000 0
4.500000 0.300000 0
4.600000 0.300000 0
4.700000 0.300000 0
4.800000 0.300000 0
4.900000 0.300000 0
5.000000 0.300000 0
5.100000 0.300000 0
5.200000 0.300000 0
5.300000 0.300000 0
5.400000 0.300000 0
5.500000 0.300000 0
5.600000 0.300000 0
5.700000 0.300000 0
5.800000 0.300000 0
5.900000 0.300000 0
6.000000 0.300000 0
6.100000 0.300000 0
6.200000 0.300000 0
6.300000 0.300000 0
6.400000 0.300000 0
6.500000 0.300000 0
6.600000 0.300000 0
6.700000 0.300000 0
6.800000 0.300000 0
6.900000 0.300000 0
7.000000 0.300000 0
7.100000 0.300000 0
7.200000 0.300000 0
7.300000 0.300000 0
7.400000 0.300000 0
7.500000 0.300000 0
7.600000 0.300000 0
7.700000 0.300000 0
7.800000 0.300000 0
7.900000 0.300000 0
8.000000 0.300000 0
8.100000 0.300000 0
8.200000 0.300000 0
8.300000 0.300000 0
8.400000 0.300000 0
8.500000 0.300000 0
8.600000 0.300000 0
8.700000 0.300000 0
8.800000 0.300000 0
8.900000 0.300000 0
9.000000 0.300000 0
9.100000 0.300000 0
9.200000 0.300000 0
9.300000 0.300000 0
9.400000 0.300000 0
9.500000 0.300000 0
9.600000 0.300000 0
9.700000 0.300000 0
9.800000 0.300000 0
9.900000 0.300000 0
10.000000 0.300000 0
0.000000 0.400000 0
0.100000 0.400000 0
0.200000 0.400000 0
0.300000 0.400000 0
0.400000 0.400000 0
0.500000 0.400000 0
0.600000 0.400000 0
0.700000 0.400000 0
0.800000 0.400000 0
0.900000 0.400000 0
1.000000 0.400000 0
1.100000 0.400000 0
1.200000 0.400000 0
1.300000 0.400000 0
1.400000 0.400000 0
1.500000 0.400000 0
1.600000 0.400000 0
1.700000 0.400000 0
1.800000 0.400000 0
1.900000 0.400000 0
2.000000 0.400000 0
2.100000 0.400000 0
2.200000 0.400000 0
2.300000 0.400000 0
2.400000 0.400000 0
2.500000 0.400000 0
2.600000 0.400000 0
2.700000 0.400000 0
2.800000 0.400000 0
2.900000 0.400000 0
3.000000 0.400000 0
3.100000 0.400000 0
3.200000 0.400000 0
3.300000 0.400000 0
3.400000 0.400000 0
3.500000 0.400000 0
3.600000 0.400000 0
3.700000 0.400000 0
3.800000 0.400000 0
3.900000 0.400000 0
4.000000 0.400000 0
4.100000 0.400000 0
4.200000 0.400000 0
4.300000 0.400000 0
4.400000 0.400000 0
4.500000 0.400000 0
4.600000 0.400000 0
4.700000 0.400000 0
4.800000 0.400000 0
4.900000 0.400000 0
5.000000 0.400000 0
5.100000 0.400000 0
5.200000 0.400000 0
5.300000 0.400000 0
5.400000 0.400000 0
5.500000 0.400000 0
5.600000 0.400000 0
5.700000 0.400000 0
5.800000 0.400000 0
5.900000 0.400000 0
6.000000 0.400000 0
6.100000 0.400000 0
6.200000 0.400000 0
6.300000 0.400000 0
6.400000 0.400000 0
6.500000 0.400000 0
6.600000 0.400000 0
6.700000 0.400000 0
6.800000 0.400000 0
6.900000 0.400000 0
7.000000 0.400000 0
7.100000 0.400000 0
7.200000 0.400000 0
7.300000 0.400000 0
7.400000 0.400000 0
7.500000 0.400000 0
7.600000 0.400000 0
7.700000 0.400000 0
7.800000 0.400000 0
7.900000 0.400000 0
8.000000 0.400000 0
8.100000 0.400000 0
8.200000 0.400000 0
8.300000 0.400000 0
8.400000 0.400000 0
8.500000 0.400000 0
8.600000 0.400000 0
[...]
POINT_DATA 2121 

VECTORS velocity float
0.500000 0.000000 0
0.000005 0.000000 0
0.000015 0.000000 0
0.000030 0.000000 0
0.000050 0.000000 0
0.000076 0.000000 0
0.000105 0.000000 0
0.000134 0.000000 0
0.000180 0.000000 0
0.000201 0.000000 0
0.000213 0.000000 0
0.000214 0.000000 0
0.000197 0.000000 0
0.000191 0.000000 0
0.000211 0.000000 0
0.000251 0.000000 0
0.000294 0.000000 0
0.000322 0.000000 0
0.000325 0.000000 0
0.000291 0.000000 0
0.000207 0.000000 0
0.000065 0.000000 0
-0.000159 0.000000 0
-0.000503 0.000000 0
-0.001006 0.000000 0
-0.001700 0.000000 0
-0.002615 0.000000 0
-0.003773 0.000000 0
-0.005131 0.000000 0
-0.006610 0.000000 0
-0.008368 0.000000 0
-0.010594 0.000000 0
-0.011540 0.000000 0
-0.010468 0.000000 0
-0.007479 0.000000 0
-0.003145 0.000000 0
0.001564 0.000000 0
0.005736 0.000000 0
0.008853 0.000000 0
0.010769 0.000000 0
0.011584 0.000000 0
0.011641 0.000000 0
0.011112 0.000000 0
0.010053 0.000000 0
0.008461 0.000000 0
0.006382 0.000000 0
0.004738 0.000000 0
0.005876 0.000000 0
0.004529 0.000000 0
0.001762 0.000000 0
0.000108 0.000000 0
0.001553 0.000000 0
0.001744 0.000000 0
0.000513 0.000000 0
-0.000774 0.000000 0
-0.001079 0.000000 0
-0.000945 0.000000 0
-0.000840 0.000000 0
-0.000809 0.000000 0
-0.000780 0.000000 0
-0.000734 0.000000 0
-0.000683 0.000000 0
-0.000639 0.000000 0
-0.000605 0.000000 0
-0.000582 0.000000 0
-0.000565 0.000000 0
-0.000549 0.000000 0
-0.000536 0.000000 0
-0.000526 0.000000 0
-0.000511 0.000000 0
-0.000491 0.000000 0
-0.000475 0.000000 0
-0.000466 0.000000 0
-0.000452 0.000000 0
-0.000424 0.000000 0
-0.000397 0.000000 0
-0.000391 0.000000 0
-0.000394 0.000000 0
-0.000378 0.000000 0
-0.000337 0.000000 0
-0.000295 0.000000 0
-0.000284 0.000000 0
-0.000313 0.000000 0
-0.000342 0.000000 0
-0.000326 0.000000 0
-0.000305 0.000000 0
-0.000286 0.000000 0
-0.000271 0.000000 0
-0.000259 0.000000 0
-0.000250 0.000000 0
-0.000243 0.000000 0
-0.000237 0.000000 0
-0.000232 0.000000 0
-0.000229 0.000000 0
-0.000226 0.000000 0
-0.000224 0.000000 0
-0.000222 0.000000 0
-0.000221 0.000000 0
-0.000221 0.000000 0
-0.000220 0.000000 0
-0.000220 0.000000 0
1.000000 0.000351 0
0.999919 0.000864 0
0.999777 0.001052 0
0.999650 0.001062 0
0.999579 0.001005 0
0.999605 0.000913 0
0.999780 0.000744 0
1.000192 0.000505 0
1.000954 0.000153 0
1.002249 -0.000486 0
1.004339 -0.001513 0
1.007564 -0.003427 0
1.012381 -0.005608 0
1.019075 -0.007712 0
1.028146 -0.010451 0
1.040247 -0.013872 0
1.056186 -0.018131 0
1.076892 -0.023274 0
1.103287 -0.029102 0
1.136038 -0.035056 0
1.175182 -0.040074 0
1.219277 -0.042647 0
1.265108 -0.041134 0
1.306529 -0.035222 0
1.339004 -0.026584 0
1.361013 -0.017535 0
1.373406 -0.010244 0
1.378888 -0.006675 0
1.382203 -0.008415 0
1.389905 -0.016740 0
1.409629 -0.033719 0
1.451791 -0.058968 0
1.525922 -0.081902 0
1.622292 -0.089477 0
1.718322 -0.077211 0
1.791613 -0.047914 0
1.826177 -0.009426 0
1.817481 0.029191 0
1.770971 0.061300 0
1.696586 0.083760 0
1.605327 0.096417 0
1.507416 0.101307 0
1.410347 0.100279 0
1.319887 0.093769 0
1.239276 0.081492 0
1.168986 0.064792 0
1.107324 0.053739 0
1.054707 0.054359 0
1.008542 0.047238 0
0.973368 0.025554 0
0.946638 0.011315 0
0.911996 0.013257 0
0.879845 0.014848 0
0.866470 0.006589 0
0.868340 -0.003373 0
0.880491 -0.008117 0
0.889732 -0.007883 0
0.896467 -0.006893 0
0.902656 -0.006322 0
0.908819 -0.005895 0
0.914563 -0.005385 0
0.919694 -0.004843 0
0.924257 -0.004347 0
0.928390 -0.003936 0
0.932218 -0.003624 0
0.935801 -0.003379 0
0.939183 -0.003157 0
0.942412 -0.002967 0
0.945481 -0.002813 0
0.948348 -0.002637 0
0.951024 -0.002420 0
0.953567 -0.002242 0
0.955965 -0.002138 0
0.958130 -0.002003 0
0.960042 -0.001751 0
0.961815 -0.001508 0
0.963534 -0.001435 0
0.965134 -0.001454 0
0.966472 -0.001339 0
0.967491 -0.001002 0
0.968322 -0.000623 0
0.969194 -0.000496 0
0.970215 -0.000710 0
0.971205 -0.000951 0
0.972045 -0.000940 0
0.972760 -0.000786 0
0.973362 -0.000635 0
0.973864 -0.000508 0
0.974283 -0.000406 0
0.974630 -0.000324 0
0.974918 -0.000260 0
0.975157 -0.000209 0
0.975355 -0.000169 0
0.975521 -0.000139 0
0.975661 -0.000119 0
0.975783 -0.000103 0
0.975894 -0.000108 0
0.976005 -0.000114 0
0.976127 -0.000208 0
0.976293 -0.000380 0
0.976507 -0.000450 0
1.000000 0.000100 0
1.000431 0.000250 0
1.001071 0.000286 0
1.001818 0.000214 0
1.002657 0.000060 0
1.003606 -0.000186 0
1.004731 -0.000573 0
1.006082 -0.001161 0
1.007829 -0.002045 0
1.010110 -0.003372 0
1.013081 -0.005302 0
1.016956 -0.008030 0
1.021585 -0.011500 0
1.027969 -0.015754 0
1.036499 -0.021161 0
1.047871 -0.028029 0
1.062959 -0.036634 0
1.082838 -0.047090 0
1.108733 -0.059134 0
1.141860 -0.071883 0
1.183388 -0.083227 0
1.232411 -0.089914 0
1.286941 -0.087238 0
1.335022 -0.073882 0
1.370056 -0.054470 0
1.391242 -0.034388 0
1.400142 -0.017860 0
1.398919 -0.008782 0
1.392394 -0.011003 0
1.389087 -0.027411 0
1.398171 -0.061872 0
1.432616 -0.116280 0
1.508714 -0.170487 0
1.622561 -0.192386 0
1.739752 -0.169307 0
1.833297 -0.107841 0
1.881334 -0.025855 0
1.876336 0.055219 0
1.826769 0.120909 0
1.748578 0.165657 0
1.654934 0.189183 0
1.553799 0.194993 0
1.450348 0.187541 0
1.351048 0.171082 0
1.261655 0.150912 0
1.182376 0.131964 0
1.110787 0.114290 0
1.052149 0.098793 0
1.022795 0.081349 0
1.019817 0.061914 0
1.021900 0.061381 0
1.010538 0.066801 0
0.999382 0.045534 0
0.985243 0.011513 0
0.964320 -0.014014 0
0.939143 -0.021386 0
0.925575 -0.015970 0
0.923100 -0.012919 0
0.927199 -0.012348 0
0.933861 -0.011903 0
0.940004 -0.010872 0
0.945152 -0.009691 0
0.949621 -0.008694 0
0.953721 -0.007960 0
0.957614 -0.007410 0
0.961359 -0.006965 0
0.964989 -0.006611 0
0.968496 -0.006299 0
0.971826 -0.005938 0
0.974968 -0.005545 0
0.977973 -0.005222 0
0.980828 -0.004944 0
0.983425 -0.004567 0
0.985725 -0.004081 0
0.987850 -0.003690 0
0.989917 -0.003497 0
0.991836 -0.003324 0
0.993421 -0.002945 0
0.994651 -0.002364 0
0.995707 -0.001857 0
0.996886 -0.001710 0
0.998246 -0.001901 0
0.999520 -0.002020 0
1.000431 -0.001838 0
1.001104 -0.001563 0
1.001687 -0.001326 0
1.002203 -0.001114 0
1.002659 -0.000930 0
1.003058 -0.000775 0
1.003404 -0.000645 0
1.003703 -0.000537 0
1.003959 -0.000447 0
1.004180 -0.000375 0
1.004367 -0.000317 0
1.004530 -0.000273 0
1.004668 -0.000243 0
1.004795 -0.000232 0
1.004898 -0.000244 0
1.005010 -0.000299 0
1.005037 -0.000391 0
1.005016 -0.000438 0
1.000000 -0.000066 0
1.000300 -0.000191 0
1.000788 -0.000330 0
1.001405 -0.000519 0
1.002120 -0.000779 0
1.002932 -0.001157 0
1.003870 -0.001727 0
1.004985 -0.002590 0
1.006375 -0.003872 0
1.008153 -0.005734 0
1.010453 -0.008355 0
1.013434 -0.011928 0
1.017263 -0.016618 0
1.022485 -0.022623 0
1.029405 -0.030349 0
1.038731 -0.040329 0
1.051337 -0.053094 0
1.068586 -0.069045 0
1.092243 -0.088120 0
1.124245 -0.109707 0
1.168608 -0.130621 0
1.224776 -0.146196 0
1.300156 -0.143740 0
1.361341 -0.118332 0
1.399349 -0.082799 0
1.417675 -0.047617 0
1.420536 -0.017916 0
1.407501 0.001078 0
1.381971 0.001422 0
1.356215 -0.022513 0
1.339507 -0.077243 0
1.353480 -0.169506 0
1.429020 -0.271843 0
1.567877 -0.320511 0
1.708084 -0.287942 0
1.829940 -0.189492 0
1.902493 -0.052460 0
1.912624 0.083761 0
1.864579 0.189062 0
1.774778 0.255599 0
1.670961 0.291201 0
1.571530 0.305898 0
1.475358 0.303034 0
1.377452 0.282466 0
1.279474 0.250167 0
1.190116 0.215664 0
1.119827 0.183970 0
1.070308 0.142355 0
1.038747 0.079573 0
0.998799 0.026452 0
0.956990 0.020597 0
0.953404 0.035778 0
0.962651 0.040145 0
0.959622 0.041653 0
0.944884 0.042729 0
0.924127 0.030631 0
0.913965 0.008162 0
0.914905 -0.008516 0
0.922816 -0.017082 0
0.933169 -0.018699 0
0.939874 -0.016675 0
0.944457 -0.014460 0
0.948401 -0.012916 0
0.952278 -0.011928 0
0.956201 -0.011262 0
0.960154 -0.010755 0
0.964075 -0.010295 0
0.967862 -0.009805 0
0.971469 -0.009287 0
0.974916 -0.008786 0
0.978174 -0.008281 0
0.981154 -0.007695 0
0.983822 -0.007037 0
0.986277 -0.006430 0
0.988611 -0.005946 0
0.990748 -0.005497 0
0.992533 -0.004942 0
0.993951 -0.004272 0
0.995198 -0.003628 0
0.996556 -0.003240 0
0.998040 -0.003165 0
0.999388 -0.003134 0
1.000325 -0.002899 0
1.001046 -0.002539 0
1.001694 -0.002199 0
1.002264 -0.001889 0
1.002764 -0.001611 0
1.003203 -0.001367 0
1.003586 -0.001155 0
1.003917 -0.000973 0
1.004202 -0.000819 0
1.004447 -0.000689 0
1.004655 -0.000582 0
1.004833 -0.000493 0
1.004984 -0.000424 0
1.005110 -0.000373 0
1.005217 -0.000342 0
1.005302 -0.000333 0
1.005364 -0.000351 0
1.005380 -0.000390 0
1.005351 -0.000412 0
1.000000 -0.000188 0
1.000223 -0.000523 0
1.000597 -0.000815 0
1.001085 -0.001114 0
1.001652 -0.001463 0
1.002283 -0.001932 0
1.002977 -0.002622 0
1.003763 -0.003662 0
1.004698 -0.005209 0
1.005865 -0.007447 0
1.007375 -0.010581 0
1.009354 -0.014838 0
1.011909 -0.020548 0
1.015745 -0.027893 0
1.020440 -0.037404 0
1.026953 -0.049958 0
1.035861 -0.066487 0
1.048895 -0.087994 0
1.068528 -0.114790 0
1.096235 -0.148244 0
1.142632 -0.183755 0
1.204497 -0.221459 0
1.333404 -0.223799 0
1.413966 -0.173069 0
1.449381 -0.110799 0
1.459218 -0.055571 0
1.455687 -0.007682 0
1.427490 0.029788 0
1.371546 0.040289 0
1.310764 0.015057 0
1.238091 -0.059133 0
1.186800 -0.205788 0
1.227316 -0.384880 0
1.382178 -0.471445 0
1.517857 -0.431366 0
1.676744 -0.302247 0
1.789674 -0.108535 0
1.840883 0.093138 0
1.837884 0.258759 0
1.775066 0.359279 0
1.664807 0.392435 0
1.532838 0.390599 0
1.412686 0.381623 0
1.326127 0.366971 0
1.271743 0.338253 0
1.237585 0.291614 0
1.199672 0.234101 0
1.143636 0.179876 0
1.065818 0.152861 0
0.979992 0.143674 0
0.927739 0.106780 0
0.920365 0.061143 0
0.931263 0.039319 0
0.947301 0.029282 0
0.965436 0.021483 0
0.982923 0.009535 0
0.987829 -0.006746 0
0.980874 -0.021768 0
0.967096 -0.030611 0
0.952683 -0.028959 0
0.945788 -0.022159 0
0.944561 -0.018218 0
0.946467 -0.016515 0
0.949935 -0.015760 0
0.954124 -0.015285 0
0.958586 -0.014839 0
0.963044 -0.014320 0
0.967326 -0.013694 0
0.971382 -0.012994 0
0.975205 -0.012252 0
0.978715 -0.011461 0
0.981829 -0.010594 0
0.984629 -0.009692 0
0.987246 -0.008873 0
0.989658 -0.008164 0
0.991717 -0.007422 0
0.993343 -0.006530 0
0.994702 -0.005612 0
0.996089 -0.004972 0
0.997647 -0.004702 0
0.999081 -0.004546 0
1.000151 -0.004189 0
1.000938 -0.003681 0
1.001612 -0.003211 0
1.002195 -0.002784 0
1.002703 -0.002400 0
1.003144 -0.002057 0
1.003529 -0.001756 0
1.003862 -0.001493 0
1.004150 -0.001266 0
1.004397 -0.001071 0
1.004609 -0.000905 0
1.004789 -0.000765 0
1.004941 -0.000649 0
1.005069 -0.000555 0
1.005174 -0.000481 0
1.005258 -0.000428 0
1.005319 -0.000395 0
1.005356 -0.000381 0
1.005361 -0.000382 0
1.005330 -0.000384 0
1.000000 -0.000278 0
1.000167 -0.000775 0
1.000447 -0.001187 0
1.000815 -0.001570 0
1.001239 -0.001974 0
1.001680 -0.002478 0
1.002108 -0.003205 0
1.002518 -0.004308 0
1.002934 -0.005971 0
1.003402 -0.008408 0
1.004024 -0.011842 0
1.004921 -0.016459 0
1.005538 -0.023006 0
1.008392 -0.031152 0
1.009962 -0.041556 0
1.013123 -0.055748 0
1.016768 -0.075034 0
1.023258 -0.101711 0
1.036732 -0.135458 0
1.053974 -0.183808 0
1.097259 -0.238880 0
1.155765 -0.336965 0
1.404336 -0.353206 0
1.479287 -0.234305 0
1.482320 -0.128047 0
1.464800 -0.053918 0
1.461003 0.013816 0
1.436275 0.085224 0
1.294262 0.118152 0
1.233385 0.110946 0
1.163083 0.046725 0
0.911529 -0.158727 0
0.774458 -0.467217 0
0.892148 -0.611048 0
0.952765 -0.582505 0
1.230018 -0.461306 0
1.390937 -0.216595 0
1.501314 0.035555 0
1.591683 0.254883 0
1.628210 0.428680 0
1.595840 0.533433 0
1.510974 0.558022 0
1.396962 0.509748 0
1.279923 0.423412 0
1.181355 0.338712 0
1.107177 0.287739 0
1.075945 0.277923 0
1.050940 0.276212 0
1.016195 0.243219 0
1.000301 0.164535 0
0.996111 0.080227 0
0.976232 0.032257 0
0.962550 0.013212 0
0.959390 0.007482 0
0.963127 0.007109 0
0.968169 0.008240 0
0.968467 0.010213 0
0.961884 0.012218 0
0.950431 0.011110 0
0.938762 0.002610 0
0.934543 -0.008552 0
0.935757 -0.015138 0
0.939760 -0.018289 0
0.945005 -0.019584 0
0.950720 -0.019913 0
0.956428 -0.019675 0
0.961832 -0.019035 0
0.966891 -0.018145 0
0.971618 -0.017168 0
0.975908 -0.016120 0
0.979651 -0.014906 0
0.982938 -0.013611 0
0.985988 -0.012456 0
0.988803 -0.011461 0
0.991138 -0.010419 0
0.992906 -0.009184 0
0.994372 -0.007929 0
0.995950 -0.007021 0
0.997667 -0.006575 0
0.999164 -0.006235 0
1.000274 -0.005673 0
1.001063 -0.004994 0
1.001734 -0.004364 0
1.002310 -0.003799 0
1.002804 -0.003294 0
1.003230 -0.002842 0
1.003598 -0.002441 0
1.003917 -0.002088 0
1.004192 -0.001780 0
1.004429 -0.001513 0
1.004631 -0.001283 0
1.004804 -0.001086 0
1.004950 -0.000918 0
1.005073 -0.000778 0
1.005174 -0.000661 0
1.005255 -0.000566 0
1.005317 -0.000492 0
1.005358 -0.000436 0
1.005377 -0.000397 0
1.005371 -0.000368 0
1.005337 -0.000353 0
1.000000 -0.000344 0
1.000118 -0.000958 0
1.000318 -0.001460 0
1.000577 -0.001902 0
1.000867 -0.002324 0
1.001143 -0.002798 0
1.001343 -0.003457 0
1.001452 -0.004486 0
1.001435 -0.006091 0
1.001321 -0.008535 0
1.001015 -0.012098 0
1.000922 -0.016350 0
1.000053 -0.024018 0
1.000754 -0.032316 0
0.999332 -0.042134 0
1.000096 -0.056763 0
0.998078 -0.076621 0
0.996468 -0.107957 0
0.998236 -0.145504 0
1.003142 -0.208770 0
1.026297 -0.285545 0
1.082621 -0.528533 0
1.422772 -0.547317 0
1.361204 -0.251050 0
1.275116 -0.096308 0
1.236524 -0.034249 0
1.166937 0.020847 0
1.240257 0.196533 0
1.259763 0.243182 0
0.885969 0.146239 0
0.552030 0.262727 0
0.365875 0.182840 0
0.208653 -0.365495 0
0.090863 -0.649749 0
0.135828 -0.769233 0
0.442201 -0.740416 0
0.795492 -0.379829 0
1.049968 -0.107604 0
1.210052 0.131866 0
1.293576 0.355125 0
1.336448 0.509674 0
1.340534 0.589480 0
1.290802 0.612677 0
1.212666 0.582581 0
1.099927 0.511002 0
0.980589 0.397026 0
0.939185 0.290341 0
0.941712 0.239629 0
0.950791 0.203503 0
0.951582 0.163761 0
0.928740 0.130851 0
0.896543 0.094707 0
0.869469 0.056164 0
0.851065 0.028707 0
0.841575 0.012706 0
0.840483 0.004196 0
0.846413 -0.000460 0
0.858787 -0.003731 0
0.875687 -0.007488 0
0.893936 -0.013070 0
0.907999 -0.019153 0
0.919432 -0.023435 0
0.929493 -0.025763 0
0.938582 -0.026720 0
0.946805 -0.026708 0
0.954287 -0.025951 0
0.961128 -0.024783 0
0.967268 -0.023482 0
0.972600 -0.022012 0
0.977195 -0.020286 0
0.981291 -0.018493 0
0.985023 -0.016934 0
0.988272 -0.015559 0
0.990795 -0.014024 0
0.992686 -0.012269 0
0.994511 -0.010659 0
0.996368 -0.009576 0
0.998200 -0.008910 0
0.999711 -0.008189 0
1.000763 -0.007312 0
1.001510 -0.006449 0
1.002133 -0.005653 0
1.002666 -0.004931 0
1.003118 -0.004284 0
1.003503 -0.003708 0
1.003832 -0.003198 0
1.004113 -0.002748 0
1.004355 -0.002353 0
1.004564 -0.002009 0
1.004743 -0.001709 0
1.004895 -0.001450 0
1.005025 -0.001228 0
1.005135 -0.001038 0
1.005226 -0.000877 0
1.005299 -0.000741 0
1.005356 -0.000628 0
1.005396 -0.000535 0
1.005419 -0.000460 0
1.005424 -0.000399 0
1.005408 -0.000347 0
1.005371 -0.000319 0
1.000000 -0.000387 0
1.000069 -0.001082 0
1.000201 -0.001642 0
1.000361 -0.002117 0
1.000533 -0.002537 0
1.000685 -0.002952 0
1.000710 -0.003511 0
1.000581 -0.004398 0
1.000265 -0.005839 0
1.000033 -0.007987 0
0.999108 -0.011442 0
0.998278 -0.015496 0
0.996725 -0.022837 0
0.993601 -0.030431 0
0.990676 -0.040898 0
0.989044 -0.054494 0
0.979268 -0.071406 0
0.981624 -0.101869 0
0.946526 -0.142132 0
0.970314 -0.211868 0
0.888256 -0.318358 0
1.012735 -0.733439 0
0.696772 -0.545141 0
0.001566 0.000000 0
0.002514 0.000000 0
0.512930 0.057628 0
0.497096 0.010087 0
0.588102 -0.007599 0
0.625460 0.472444 0
0.348472 0.818681 0
0.094948 0.566821 0
0.022081 0.184653 0
-0.172454 -0.192202 0
-0.472880 -0.538221 0
-0.200037 -0.933840 0
-0.141533 -1.120967 0
0.196112 -0.824360 0
0.589187 -0.379003 0
0.812086 0.011279 0
0.948806 0.302288 0
1.053301 0.486478 0
1.128464 0.603671 0
1.146382 0.637619 0
1.087187 0.614290 0
1.008354 0.570793 0
0.975182 0.448484 0
0.927999 0.316803 0
0.872257 0.264610 0
0.841182 0.233352 0
0.829560 0.186588 0
0.827202 0.135268 0
0.826392 0.091530 0
0.817706 0.058692 0
0.806909 0.035378 0
0.800942 0.017693 0
0.803061 0.003403 0
0.813126 -0.008090 0
0.829377 -0.017055 0
0.849312 -0.024038 0
0.870187 -0.029702 0
0.889305 -0.034047 0
0.906165 -0.036632 0
0.920913 -0.037439 0
0.933665 -0.036896 0
0.944557 -0.035618 0
0.953890 -0.033999 0
0.961961 -0.032017 0
0.968930 -0.029618 0
0.974917 -0.027096 0
0.980083 -0.024812 0
0.984447 -0.022736 0
0.987966 -0.020593 0
0.990860 -0.018230 0
0.993389 -0.015877 0
0.995475 -0.014137 0
0.997601 -0.012869 0
0.999418 -0.011621 0
1.000772 -0.010367 0
1.001675 -0.009141 0
1.002348 -0.008037 0
1.002889 -0.007046 0
1.003330 -0.006153 0
1.003697 -0.005352 0
1.004004 -0.004640 0
1.004263 -0.004011 0
1.004481 -0.003456 0
1.004667 -0.002969 0
1.004826 -0.002543 0
1.004963 -0.002171 0
1.005080 -0.001849 0
1.005180 -0.001570 0
1.005265 -0.001329 0
1.005336 -0.001123 0
1.005394 -0.000946 0
1.005439 -0.000796 0
1.005472 -0.000668 0
1.005492 -0.000560 0
1.005499 -0.000468 0
1.005490 -0.000390 0
1.005466 -0.000319 0
1.005425 -0.000282 0
1.000000 -0.000405 0
0.999997 -0.001150 0
1.000102 -0.001749 0
1.000173 -0.002231 0
1.000259 -0.002646 0
1.000266 -0.002973 0
1.000436 -0.003351 0
0.999740 -0.004040 0
0.999701 -0.005542 0
0.998278 -0.007378 0
0.998502 -0.010342 0
0.995010 -0.013966 0
0.995200 -0.019341 0
0.988143 -0.026267 0
0.988006 -0.037577 0
0.974402 -0.045355 0
0.972656 -0.069203 0
0.950388 -0.075216 0
0.937028 -0.134195 0
0.888339 -0.150500 0
0.824800 -0.327966 0
0.725515 -0.423695 0
0.000000 0.004618 0
-0.604307 0.145073 0
-0.529856 0.000000 0
0.000000 0.000000 0
0.053238 -0.058712 0
0.014120 0.068171 0
-0.195173 0.482815 0
0.215866 0.676754 0
0.204170 0.589120 0
-0.019701 0.450243 0
-0.205671 0.129468 0
-0.282055 -0.622164 0
-0.104791 -1.100578 0
-0.136518 -1.136563 0
-0.088426 -1.110547 0
0.210644 -0.723575 0
0.517595 -0.227749 0
0.735768 0.113912 0
0.879970 0.330018 0
0.929898 0.496402 0
0.916270 0.653957 0
0.898627 0.720612 0
0.922906 0.623011 0
0.927472 0.477384 0
0.858501 0.393269 0
0.807290 0.326449 0
0.799244 0.246202 0
0.796867 0.177744 0
0.779564 0.134021 0
0.754608 0.104206 0
0.734512 0.075649 0
0.727172 0.045473 0
0.733332 0.016557 0
0.749876 -0.007986 0
0.773098 -0.026775 0
0.799916 -0.039916 0
0.827889 -0.048297 0
0.854901 -0.053063 0
0.879225 -0.055131 0
0.900331 -0.055042 0
0.918374 -0.053263 0
0.933691 -0.050363 0
0.946551 -0.046934 0
0.957302 -0.043357 0
0.966084 -0.039824 0
0.973265 -0.036438 0
0.979346 -0.033166 0
0.984699 -0.029817 0
0.989168 -0.026378 0
0.992387 -0.023349 0
0.995336 -0.020983 0
0.997828 -0.018641 0
0.999917 -0.016484 0
1.001407 -0.014604 0
1.002435 -0.012750 0
1.003133 -0.011170 0
1.003657 -0.009768 0
1.004056 -0.008529 0
1.004358 -0.007434 0
1.004590 -0.006465 0
1.004774 -0.005608 0
1.004923 -0.004853 0
1.005045 -0.004189 0
1.005147 -0.003607 0
1.005234 -0.003098 0
1.005308 -0.002653 0
1.005371 -0.002266 0
1.005426 -0.001930 0
1.005474 -0.001639 0
1.005514 -0.001388 0
1.005547 -0.001171 0
1.005573 -0.000985 0
1.005591 -0.000824 0
1.005601 -0.000686 0
1.005601 -0.000566 0
1.005592 -0.000462 0
1.005572 -0.000371 0
1.005540 -0.000286 0
1.005495 -0.000241 0
1.000000 -0.000377 0
0.999972 -0.001175 0
0.999999 -0.001817 0
1.000113 -0.002272 0
0.999886 -0.002628 0
1.000150 -0.003128 0
0.999740 -0.002984 0
0.999590 -0.003661 0
0.998485 -0.004376 0
0.998201 -0.006789 0
0.995924 -0.008175 0
0.994921 -0.012194 0
0.991263 -0.015971 0
0.987869 -0.023236 0
0.981355 -0.027158 0
0.971092 -0.039145 0
0.964421 -0.047393 0
0.930267 -0.066243 0
0.930453 -0.080084 0
0.830684 -0.099642 0
0.831154 -0.155537 0
0.488165 0.006970 0
0.372785 0.095985 0
0.000000 0.000000 0
0.000000 0.000000 0
0.000000 0.000000 0
0.000000 0.000000 0
-0.050290 0.249236 0
0.072622 0.270700 0
0.065191 0.419341 0
-0.164104 0.802390 0
-0.184360 0.594495 0
-0.038050 0.070153 0
0.179578 -0.639098 0
0.069625 -1.079375 0
0.114421 -1.137330 0
0.064606 -1.171520 0
0.086089 -0.985022 0
0.355464 -0.513842 0
0.542952 -0.060085 0
0.617591 0.292350 0
0.630661 0.567374 0
0.690909 0.668893 0
0.817154 0.607657 0
0.875422 0.541950 0
0.835405 0.512891 0
0.803191 0.436988 0
0.802943 0.323870 0
0.785212 0.243778 0
0.737333 0.206270 0
0.685672 0.177529 0
0.655118 0.136585 0
0.652230 0.086131 0