# vtk DataFile Version 2.0
generated by CFD-lab course output (written by Tobias Neckel) 
ASCII

DATASET STRUCTURED_GRID
DIMENSIONS  101 21 1 
POINTS 2121 float

0.000000 0.000000 0
0.100000 0.000000 0
0.200000 0.000000 0
0.300000 0.000000 0
0.400000 0.000000 0
0.500000 0.000000 0
0.600000 0.000000 0
0.700000 0.000000 0
0.800000 0.000000 0
0.900000 0.000000 0
1.000000 0.000000 0
1.100000 0.000000 0
1.200000 0.000000 0
1.300000 0.000000 0
1.400000 0.000000 0
1.500000 0.000000 0
1.600000 0.000000 0
1.700000 0.000000 0
1.800000 0.000000 0
1.900000 0.000000 0
2.000000 0.000000 0
2.100000 0.000000 0
2.200000 0.000000 0
2.300000 0.000000 0
2.400000 0.000000 0
2.500000 0.000000 0
2.600000 0.000000 0
2.700000 0.000000 0
2.800000 0.000000 0
2.900000 0.000000 0
3.000000 0.000000 0
3.100000 0.000000 0
3.200000 0.000000 0
3.300000 0.000000 0
3.400000 0.000000 0
3.500000 0.000000 0
3.600000 0.000000 0
3.700000 0.000000 0
3.800000 0.000000 0
3.900000 0.000000 0
4.000000 0.000000 0
4.100000 0.000000 0
4.200000 0.000000 0
4.300000 0.000000 0
4.400000 0.000000 0
4.500000 0.000000 0
4.600000 0.000000 0
4.700000 0.000000 0
4.800000 0.000000 0
4.900000 0.000000 0
5.000000 0.000000 0
5.100000 0.000000 0
5.200000 0.000000 0
5.300000 0.000000 0
5.400000 0.000000 0
5.500000 0.000000 0
5.600000 0.000000 0
5.700000 0.000000 0
5.800000 0.000000 0
5.900000 0.000000 0
6.000000 0.000000 0
6.100000 0.000000 0
6.200000 0.000000 0
6.300000 0.000000 0
6.400000 0.000000 0
6.500000 0.000000 0
6.600000 0.000000 0
6.700000 0.000000 0
6.800000 0.000000 0
6.900000 0.000000 0
7.000000 0.000000 0
7.100000 0.000000 0
7.200000 0.000000 0
7.300000 0.000000 0
7.400000 0.000000 0
7.500000 0.000000 0
7.600000 0.000000 0
7.700000 0.000000 0
7.800000 0.000000 0
7.900000 0.000000 0
8.000000 0.000000 0
8.100000 0.000000 0
8.200000 0.000000 0
8.300000 0.000000 0
8.400000 0.000000 0
8.500000 0.000000 0
8.600000 0.000000 0
8.700000 0.000000 0
8.800000 0.000000 0
8.900000 0.000000 0
9.000000 0.000000 0
9.100000 0.000000 0
9.200000 0.000000 0
9.300000 0.000000 0
9.400000 0.000000 0
9.500000 0.000000 0
9.600000 0.000000 0
9.700000 0.000000 0
9.800000 0.000000 0
9.900000 0.000000 0
10.000000 0.000000 0
0.000000 0.100000 0
0.100000 0.100000 0
0.200000 0.100000 0
0.300000 0.100000 0
0.400000 0.100000 0
0.500000 0.100000 0
0.600000 0.100000 0
0.700000 0.100000 0
0.800000 0.100000 0
0.900000 0.100000 0
1.000000 0.100000 0
1.100000 0.100000 0
1.200000 0.100000 0
1.300000 0.100000 0
1.400000 0.100000 0
1.500000 0.100000 0
1.600000 0.100000 0
1.700000 0.100000 0
1.800000 0.100000 0
1.900000 0.100000 0
2.000000 0.100000 0
2.100000 0.100000 0
2.200000 0.100000 0
2.300000 0.100000 0
2.400000 0.100000 0
2.500000 0.100000 0
2.600000 0.100000 0
2.700000 0.100000 0
2.800000 0.100000 0
2.900000 0.100000 0
3.000000 0.100000 0
3.100000 0.100000 0
3.200000 0.100000 0
3.300000 0.100000 0
3.400000 0.100000 0
3.500000 0.100000 0
3.600000 0.100000 0
3.700000 0.100000 0
3.800000 0.100000 0
3.900000 0.100000 0
4.000000 0.100000 0
4.100000 0.100000 0
4.200000 0.100000 0
4.300000 0.100000 0
4.400000 0.100000 0
4.500000 0.100000 0
4.600000 0.100000 0
4.700000 0.100000 0
4.800000 0.100000 0
4.900000 0.100000 0
5.000000 0.100000 0
5.100000 0.100000 0
5.200000 0.100000 0
5.300000 0.100000 0
5.400000 0.100000 0
5.500000 0.100000 0
5.600000 0.100000 0
5.700000 0.100000 0
5.800000 0.100000 0
5.900000 0.100000 0
6.000000 0.100000 0
6.100000 0.100000 0
6.200000 0.100000 0
6.300000 0.100000 0
6.400000 0.100000 0
6.500000 0.100000 0
6.600000 0.100000 0
6.700000 0.100000 0
6.800000 0.100000 0
6.900000 0.100000 0
7.000000 0.100000 0
7.100000 0.100000 0
7.200000 0.100000 0
7.300000 0.100000 0
7.400000 0.100000 0
7.500000 0.100000 0
7.600000 0.100000 0
7.700000 0.100000 0
7.800000 0.100000 0
7.900000 0.100000 0
8.000000 0.100000 0
8.100000 0.100000 0
8.200000 0.100000 0
8.300000 0.100000 0
8.400000 0.100000 0
8.500000 0.100000 0
8.600000 0.100000 0
8.700000 0.100000 0
8.800000 0.100000 0
8.900000 0.100000 0
9.000000 0.100000 0
9.100000 0.100000 0
9.200000 0.100000 0
9.300000 0.100000 0
9.400000 0.100000 0
9.500000 0.100000 0
9.600000 0.100000 0
9.700000 0.100000 0
9.800000 0.100000 0
9.900000 0.100000 0
10.000000 0.100000 0
0.000000 0.200000 0
0.100000 0.200000 0
0.200000 0.200000 0
0.300000 0.200000 0
0.400000 0.200000 0
0.500000 0.200000 0
0.600000 0.200000 0
0.700000 0.200000 0
0.800000 0.200000 0
0.900000 0.200000 0
1.000000 0.200000 0
1.100000 0.200000 0
1.200000 0.200000 0
1.300000 0.200000 0
1.400000 0.200000 0
1.500000 0.200000 0
1.600000 0.200000 0
1.700000 0.200000 0
1.800000 0.200000 0
1.900000 0.200000 0
2.000000 0.200000 0
2.100000 0.200000 0
2.200000 0.200000 0
2.300000 0.200000 0
2.400000 0.200000 0
2.500000 0.200000 0
2.600000 0.200000 0
2.700000 0.200000 0
2.800000 0.200000 0
2.900000 0.200000 0
3.000000 0.200000 0
3.100000 0.200000 0
3.200000 0.200000 0
3.300000 0.200000 0
3.400000 0.200000 0
3.500000 0.200000 0
3.600000 0.200000 0
3.700000 0.200000 0
3.800000 0.200000 0
3.900000 0.200000 0
4.000000 0.200000 0
4.100000 0.200000 0
4.200000 0.200000 0
4.300000 0.200000 0
4.400000 0.200000 0
4.500000 0.200000 0
4.600000 0.200000 0
4.700000 0.200000 0
4.800000 0.200000 0
4.900000 0.200000 0
5.000000 0.200000 0
5.100000 0.200000 0
5.200000 0.200000 0
5.300000 0.200000 0
5.400000 0.200000 0
5.500000 0.200000 0
5.600000 0.200000 0
5.700000 0.200000 0
5.800000 0.200000 0
5.900000 0.200000 0
6.000000 0.200000 0
6.100000 0.200000 0
6.200000 0.200000 0
6.300000 0.200000 0
6.400000 0.200000 0
6.500000 0.200000 0
6.600000 0.200000 0
6.700000 0.200000 0
6.800000 0.200000 0
6.900000 0.200000 0
7.000000 0.200000 0
7.100000 0.200000 0
7.200000 0.200000 0
7.300000 0.200000 0
7.400000 0.200000 0
7.500000 0.200000 0
7.600000 0.200000 0
7.700000 0.200000 0
7.800000 0.200000 0
7.900000 0.200000 0
8.000000 0.200000 0
8.100000 0.200000 0
8.200000 0.200000 0
8.300000 0.200000 0
8.400000 0.200000 0
8.500000 0.200000 0
8.600000 0.200000 0
8.700000 0.200000 0
8.800000 0.200000 0
8.900000 0.200000 0
9.000000 0.200000 0
9.100000 0.200000 0
9.200000 0.200000 0
9.300000 0.200000 0
9.400000 0.200000 0
9.500000 0.200000 0
9.600000 0.200000 0
9.700000 0.200000 0
9.800000 0.200000 0
9.900000 0.200000 0
10.000000 0.200000 0
0.000000 0.300000 0
0.100000 0.300000 0
0.200000 0.300000 0
0.300000 0.300000 0
0.400000 0.300000 0
0.500000 0.300000 0
0.600000 0.300000 0
0.700000 0.300000 0
0.800000 0.300000 0
0.900000 0.300000 0
1.000000 0.300000 0
1.100000 0.300000 0
1.200000 0.300000 0
1.300000 0.300000 0
1.400000 0.300000 0
1.500000 0.300000 0
1.600000 0.300000 0
1.700000 0.300000 0
1.800000 0.300000 0
1.900000 0.300000 0
2.000000 0.300000 0
2.100000 0.300000 0
2.200000 0.300000 0
2.300000 0.300000 0
2.400000 0.300000 0
2.500000 0.300000 0
2.600000 0.300000 0
2.700000 0.300000 0
2.800000 0.300000 0
2.900000 0.300000 0
3.000000 0.300000 0
3.100000 0.300000 0
3.200000 0.300000 0
3.300000 0.300000 0
3.400000 0.300000 0
3.500000 0.300000 0
3.600000 0.300000 0
3.700000 0.300000 0
3.800000 0.300000 0
3.900000 0.300000 0
4.000000 0.300000 0
4.100000 0.300000 0
4.200000 0.300000 0
4.300000 0.300000 0
4.400000 0.300000 0
4.500000 0.300000 0
4.600000 0.300000 0
4.700000 0.300000 0
4.800000 0.300000 0
4.900000 0.300000 0
5.000000 0.300000 0
5.100000 0.300000 0
5.200000 0.300000 0
5.300000 0.300000 0
5.400000 0.300000 0
5.500000 0.300000 0
5.600000 0.300000 0
5.700000 0.300000 0
5.800000 0.300000 0
5.900000 0.300000 0
6.000000 0.300000 0
6.100000 0.300000 0
6.200000 0.300000 0
6.300000 0.300000 0
6.400000 0.300000 0
6.500000 0.300000 0
6.600000 0.300000 0
6.700000 0.300000 0
6.800000 0.300000 0
6.900000 0.300000 0
7.000000 0.300000 0
7.100000 0.300000 0
7.200000 0.300000 0
7.300000 0.300000 0
7.400000 0.300000 0
7.500000 0.300000 0
7.600000 0.300000 0
7.700000 0.300000 0
7.800000 0.300000 0
7.900000 0.300000 0
8.000000 0.300000 0
8.100000 0.300000 0
8.200000 0.300000 0
8.300000 0.300000 0
8.400000 0.300000 0
8.500000 0.300000 0
8.600000 0.300000 0
8.700000 0.300000 0
8.800000 0.300000 0
8.900000 0.300000 0
9.000000 0.300000 0
9.100000 0.300000 0
9.200000 0.300000 0
9.300000 0.300000 0
9.400000 0.300000 0
9.500000 0.300000 0
9.600000 0.300000 0
9.700000 0.300000 0
9.800000 0.300000 0
9.900000 0.300000 0
10.000000 0.300000 0
0.000000 0.400000 0
0.100000 0.400000 0
0.200000 0.400000 0
0.300000 0.400000 0
0.400000 0.400000 0
0.500000 0.400000 0
0.600000 0.400000 0
0.700000 0.400000 0
0.800000 0.400000 0
0.900000 0.400000 0
1.000000 0.400000 0
1.100000 0.400000 0
1.200000 0.400000 0
1.300000 0.400000 0
1.400000 0.400000 0
1.500000 0.400000 0
1.600000 0.400000 0
1.700000 0.400000 0
1.800000 0.400000 0
1.900000 0.400000 0
2.000000 0.400000 0
2.100000 0.400000 0
2.200000 0.400000 0
2.300000 0.400000 0
2.400000 0.400000 0
2.500000 0.400000 0
2.600000 0.400000 0
2.700000 0.400000 0
2.800000 0.400000 0
2.900000 0.400000 0
3.000000 0.400000 0
3.100000 0.400000 0
3.200000 0.400000 0
3.300000 0.400000 0
3.400000 0.400000 0
3.500000 0.400000 0
3.600000 0.400000 0
3.700000 0.400000 0
3.800000 0.400000 0
3.900000 0.400000 0
4.000000 0.400000 0
4.100000 0.400000 0
4.200000 0.400000 0
4.300000 0.400000 0
4.400000 0.400000 0
4.500000 0.400000 0
4.600000 0.400000 0
4.700000 0.400000 0
4.800000 0.400000 0
4.900000 0.400000 0
5.000000 0.400000 0
5.100000 0.400000 0
5.200000 0.400000 0
5.300000 0.400000 0
5.400000 0.400000 0
5.500000 0.400000 0
5.600000 0.400000 0
5.700000 0.400000 0
5.800000 0.400000 0
5.900000 0.400000 0
6.000000 0.400000 0
6.100000 0.400000 0
6.200000 0.400000 0
6.300000 0.400000 0
6.400000 0.400000 0
6.500000 0.400000 0
6.600000 0.400000 0
6.700000 0.400000 0
6.800000 0.400000 0
6.900000 0.400000 0
7.000000 0.400000 0
7.100000 0.400000 0
7.200000 0.400000 0
7.300000 0.400000 0
7.400000 0.400000 0
7.500000 0.400000 0
7.600000 0.400000 0
7.700000 0.400000 0
7.800000 0.400000 0
7.900000 0.400000 0
8.000000 0.400000 0
8.100000 0.400000 0
8.200000 0.400000 0
8.300000 0.400000 0
8.400000 0.400000 0
8.500000 0.400000 0
8.600000 0.400000 0
[...]
POINT_DATA 2121 

VECTORS velocity float
0.500000 0.000000 0
0.000003 0.000000 0
0.000016 0.000000 0
0.000037 0.000000 0
0.000067 0.000000 0
0.000108 0.000000 0
0.000168 0.000000 0
0.000209 0.000000 0
0.000262 0.000000 0
0.000325 0.000000 0
0.000393 0.000000 0
0.000467 0.000000 0
0.000544 0.000000 0
0.000626 0.000000 0
0.000721 0.000000 0
0.000833 0.000000 0
0.000962 0.000000 0
0.001106 0.000000 0
0.001262 0.000000 0
0.001427 0.000000 0
0.001593 0.000000 0
0.001748 0.000000 0
0.001872 0.000000 0
0.001910 0.000000 0
0.001763 0.000000 0
0.001379 0.000000 0
0.000764 0.000000 0
-0.000035 0.000000 0
-0.001005 0.000000 0
-0.002210 0.000000 0
-0.003755 0.000000 0
-0.005727 0.000000 0
-0.008081 0.000000 0
-0.010483 0.000000 0
-0.012002 0.000000 0
-0.010780 0.000000 0
-0.005475 0.000000 0
0.000350 0.000000 0
0.005149 0.000000 0
0.008587 0.000000 0
0.010645 0.000000 0
0.012037 0.000000 0
0.014545 0.000000 0
0.012120 0.000000 0
-0.009316 0.000000 0
-0.040325 0.000000 0
0.028242 0.000000 0
0.086620 0.000000 0
0.044151 0.000000 0
0.013859 0.000000 0
-0.007292 0.000000 0
-0.023797 0.000000 0
-0.028287 0.000000 0
-0.020479 0.000000 0
-0.019729 0.000000 0
-0.020102 0.000000 0
-0.018860 0.000000 0
-0.016849 0.000000 0
-0.014703 0.000000 0
-0.011014 0.000000 0
-0.003468 0.000000 0
0.005154 0.000000 0
0.014590 0.000000 0
0.031837 0.000000 0
0.049869 0.000000 0
0.025516 0.000000 0
0.000753 0.000000 0
-0.003794 0.000000 0
-0.005080 0.000000 0
-0.006517 0.000000 0
-0.007034 0.000000 0
-0.005770 0.000000 0
-0.006836 0.000000 0
-0.007093 0.000000 0
-0.006855 0.000000 0
-0.006372 0.000000 0
-0.005303 0.000000 0
-0.003784 0.000000 0
-0.002016 0.000000 0
-0.000306 0.000000 0
0.000983 0.000000 0
0.001631 0.000000 0
0.001712 0.000000 0
0.001449 0.000000 0
0.000885 0.000000 0
-0.000122 0.000000 0
-0.001513 0.000000 0
-0.002758 0.000000 0
-0.003141 0.000000 0
-0.002376 0.000000 0
-0.000856 0.000000 0
0.000703 0.000000 0
0.001904 0.000000 0
0.002950 0.000000 0
0.004210 0.000000 0
0.005717 0.000000 0
0.007167 0.000000 0
0.008230 0.000000 0
0.008673 0.000000 0
0.008497 0.000000 0
0.008395 0.000000 0
1.000000 0.000255 0
1.000157 0.000488 0
1.000573 0.000344 0
1.001294 0.000051 0
1.002374 -0.000337 0
1.003877 -0.000854 0
1.005888 -0.001430 0
1.008498 -0.002097 0
1.011855 -0.002975 0
1.016152 -0.004080 0
1.021643 -0.005495 0
1.028661 -0.007322 0
1.037636 -0.009671 0
1.049105 -0.012639 0
1.063719 -0.016314 0
1.082262 -0.020790 0
1.105637 -0.026121 0
1.134803 -0.032215 0
1.170592 -0.038701 0
1.213384 -0.044770 0
1.262586 -0.049003 0
1.315737 -0.049424 0
1.368049 -0.043793 0
1.410735 -0.031499 0
1.436403 -0.014929 0
1.442946 0.002531 0
1.431493 0.018323 0
1.405252 0.030943 0
1.367750 0.039305 0
1.323471 0.041877 0
1.278787 0.036725 0
1.242405 0.022211 0
1.224859 -0.002105 0
1.237243 -0.034845 0
1.292646 -0.068569 0
1.387937 -0.083051 0
1.482512 -0.063681 0
1.537994 -0.022309 0
1.542774 0.020162 0
1.503336 0.054002 0
1.435060 0.076872 0
1.350354 0.093762 0
1.254339 0.104479 0
1.170055 0.054493 0
1.183081 -0.105877 0
1.185698 -0.208742 0
0.951479 0.165074 0
0.562038 0.544983 0
0.337615 0.388288 0
0.262295 0.109074 0
0.262911 -0.085372 0
0.359326 -0.215935 0
0.554774 -0.255884 0
0.795518 -0.204447 0
0.999427 -0.159473 0
1.153437 -0.152484 0
1.290050 -0.136773 0
1.405685 -0.115764 0
1.498771 -0.091677 0
1.566510 -0.057096 0
1.599763 -0.002739 0
1.578523 0.056700 0
1.477838 0.124993 0
1.304094 0.232203 0
1.112752 0.315912 0
0.954233 0.217500 0
0.844874 0.038270 0
0.791490 -0.037279 0
0.788044 -0.056579 0
0.813507 -0.068831 0
0.864688 -0.072442 0
0.936333 -0.062676 0
1.006533 -0.057204 0
1.067494 -0.060113 0
1.130908 -0.058974 0
1.191449 -0.053874 0
1.245897 -0.045105 0
1.290680 -0.033082 0
1.322636 -0.019093 0
1.339744 -0.005313 0
1.342113 0.005717 0
1.332769 0.012309 0
1.317003 0.014485 0
1.300323 0.013232 0
1.286345 0.008935 0
1.276051 0.001328 0
1.268403 -0.008667 0
1.262224 -0.017816 0
1.257801 -0.022272 0
1.256772 -0.020607 0
1.260797 -0.015008 0
1.271274 -0.009293 0
1.288925 -0.005434 0
1.311786 -0.002222 0
1.334401 0.002624 0
1.349617 0.009588 0
1.352096 0.016795 0
1.341246 0.021671 0
1.321279 0.021952 0
1.300793 0.018832 0
1.283493 0.016891 0
1.000000 -0.000178 0
1.000732 -0.000603 0
1.001938 -0.001155 0
1.003525 -0.001820 0
1.005487 -0.002601 0
1.007847 -0.003533 0
1.010629 -0.004639 0
1.013998 -0.005984 0
1.018038 -0.007671 0
1.022926 -0.009804 0
1.028883 -0.012525 0
1.036206 -0.016009 0
1.045266 -0.020459 0
1.056548 -0.026097 0
1.070679 -0.033171 0
1.088470 -0.041931 0
1.110942 -0.052553 0
1.139332 -0.064966 0
1.174956 -0.078592 0
1.219006 -0.092005 0
1.272099 -0.102361 0
1.332621 -0.105471 0
1.397524 -0.095006 0
1.450776 -0.068360 0
1.480370 -0.032216 0
1.486338 0.004905 0
1.471360 0.037691 0
1.441100 0.063741 0
1.398031 0.081780 0
1.344999 0.088962 0
1.287651 0.081066 0
1.235624 0.053929 0
1.201328 0.005163 0
1.197880 -0.067786 0
1.257240 -0.150691 0
1.384985 -0.189863 0
1.526238 -0.150054 0
1.610281 -0.060259 0
1.622808 0.034663 0
1.580076 0.107719 0
1.504519 0.152987 0
1.410365 0.180727 0
1.314640 0.180305 0
1.235505 0.071265 0
1.092657 -0.015636 0
0.737644 0.231610 0
0.241232 0.623668 0
0.205186 0.613872 0
0.427743 0.299752 0
0.630712 0.074713 0
0.709595 -0.097021 0
0.646939 -0.291853 0
0.590941 -0.436182 0
0.676375 -0.444644 0
0.879674 -0.357909 0
1.049985 -0.290613 0
1.164436 -0.252238 0
1.257401 -0.208711 0
1.331604 -0.160815 0
1.385458 -0.100982 0
1.402013 -0.012003 0
1.359580 0.121935 0
1.271554 0.274439 0
1.186300 0.365095 0
1.084922 0.349871 0
1.023723 0.267887 0
0.960880 0.162751 0
0.858155 0.056838 0
0.756909 -0.022008 0
0.697469 -0.076635 0
0.694293 -0.122818 0
0.760350 -0.141838 0
0.881551 -0.131155 0
0.995880 -0.124369 0
1.074033 -0.123948 0
1.140054 -0.114983 0
1.200620 -0.099226 0
1.253455 -0.076735 0
1.295592 -0.049059 0
1.324282 -0.019473 0
1.337282 0.006978 0
1.335416 0.025113 0
1.323573 0.032448 0
1.307144 0.030660 0
1.287732 0.024274 0
1.264470 0.017944 0
1.237778 0.013828 0
1.211358 0.010602 0
1.190448 0.005452 0
1.179846 -0.002996 0
1.182030 -0.014503 0
1.198485 -0.028129 0
1.230215 -0.040514 0
1.274127 -0.045477 0
1.322237 -0.037832 0
1.363984 -0.017697 0
1.391453 0.008369 0
1.401078 0.030816 0
1.393202 0.040451 0
1.369868 0.037784 0
1.350252 0.034777 0
1.000000 -0.000493 0
1.000547 -0.001469 0
1.001555 -0.002457 0
1.002943 -0.003505 0
1.004690 -0.004666 0
1.006802 -0.006004 0
1.009313 -0.007588 0
1.012304 -0.009514 0
1.015869 -0.011910 0
1.020140 -0.014932 0
1.025301 -0.018781 0
1.031602 -0.023711 0
1.039378 -0.030019 0
1.049073 -0.038058 0
1.061255 -0.048242 0
1.076702 -0.061059 0
1.096535 -0.076988 0
1.122409 -0.096232 0
1.156315 -0.118379 0
1.200852 -0.141917 0
1.258920 -0.162622 0
1.330445 -0.174852 0
1.424163 -0.161951 0
1.493104 -0.114346 0
1.527379 -0.050492 0
1.531539 0.011539 0
1.511349 0.063560 0
1.471332 0.104271 0
1.416190 0.135407 0
1.346408 0.152257 0
1.268259 0.146100 0
1.187084 0.108535 0
1.121933 0.035640 0
1.075268 -0.090756 0
1.121915 -0.255672 0
1.279027 -0.352048 0
1.506618 -0.288975 0
1.654056 -0.118876 0
1.692329 0.050369 0
1.643915 0.172293 0
1.549526 0.246586 0
1.444659 0.283644 0
1.336942 0.279342 0
1.202921 0.276479 0
0.920088 0.391987 0
0.520173 0.642686 0
0.360209 0.697536 0
0.472239 0.358474 0
0.648044 -0.037234 0
0.770365 -0.172774 0
0.854152 -0.101595 0
0.863863 -0.097276 0
0.784235 -0.285316 0
0.697002 -0.493177 0
0.738700 -0.533079 0
0.892764 -0.437242 0
1.030067 -0.344185 0
1.106479 -0.282928 0
1.158878 -0.219731 0
1.209465 -0.127501 0
1.252420 0.023143 0
1.248971 0.187162 0
1.180866 0.298277 0
1.061353 0.418838 0
0.974318 0.478493 0
0.939520 0.341545 0
0.868293 0.203841 0
0.763759 0.166696 0
0.688815 0.104111 0
0.646164 -0.006211 0
0.600163 -0.135321 0
0.596146 -0.249932 0
0.685674 -0.292731 0
0.833355 -0.252592 0
0.964259 -0.203146 0
1.048420 -0.180459 0
1.107294 -0.158504 0
1.160980 -0.128052 0
1.204306 -0.089918 0
1.236590 -0.047001 0
1.255052 -0.005417 0
1.258602 0.026019 0
1.250118 0.042758 0
1.233091 0.049073 0
1.207934 0.051610 0
1.179582 0.051282 0
1.158052 0.044445 0
1.152399 0.029514 0
1.162444 0.009240 0
1.182652 -0.012189 0
1.203740 -0.033648 0
1.221119 -0.057477 0
1.240784 -0.081077 0
1.270682 -0.094245 0
1.310163 -0.087233 0
1.348957 -0.059628 0
1.382411 -0.020300 0
1.408904 0.019922 0
1.414058 0.053161 0
1.386915 0.061781 0
1.366997 0.058096 0
1.000000 -0.000740 0
1.000427 -0.002177 0
1.001254 -0.003559 0
1.002423 -0.004962 0
1.003912 -0.006468 0
1.005716 -0.008163 0
1.007849 -0.010149 0
1.010356 -0.012547 0
1.013302 -0.015513 0
1.016775 -0.019243 0
1.020907 -0.023994 0
1.025887 -0.030093 0
1.031997 -0.037936 0
1.039615 -0.047979 0
1.049179 -0.060805 0
1.061296 -0.077216 0
1.077003 -0.098266 0
1.098574 -0.124751 0
1.128355 -0.157040 0
1.171198 -0.194613 0
1.232367 -0.231957 0
1.315096 -0.270716 0
1.470796 -0.257667 0
1.563366 -0.171578 0
1.597909 -0.070652 0
1.596220 0.020935 0
1.568483 0.097897 0
1.519743 0.158899 0
1.452724 0.206703 0
1.362625 0.236893 0
1.231634 0.240390 0
1.108744 0.200256 0
1.066418 0.116979 0
0.908485 -0.067767 0
0.815958 -0.354449 0
0.912438 -0.574564 0
1.262448 -0.525082 0
1.512551 -0.245968 0
1.646022 0.044806 0
1.668424 0.250525 0
1.594215 0.352245 0
1.469795 0.393314 0
1.332092 0.422047 0
1.185008 0.488122 0
1.014040 0.667115 0
0.871560 0.791492 0
0.892269 0.671605 0
0.918405 0.326041 0
0.754578 0.001629 0
0.526485 -0.131392 0
0.451564 -0.190515 0
0.570357 -0.221932 0
0.718672 -0.269318 0
0.756982 -0.399104 0
0.723409 -0.553667 0
0.751718 -0.581976 0
0.867882 -0.465949 0
0.972402 -0.337518 0
1.025016 -0.263797 0
1.024297 -0.194520 0
0.982441 -0.051505 0
0.925402 0.193493 0
0.856229 0.462061 0
0.822652 0.571646 0
0.906852 0.471707 0
0.912909 0.373916 0
0.747825 0.338516 0
0.677209 0.236319 0
0.766648 0.095589 0
0.867145 0.012019 0
0.884648 -0.072798 0
0.794735 -0.227347 0
0.690456 -0.368361 0
0.696804 -0.402951 0
0.807523 -0.339012 0
0.926114 -0.258016 0
1.013309 -0.211785 0
1.069669 -0.173745 0
1.108390 -0.124668 0
1.135133 -0.070217 0
1.142597 -0.015033 0
1.132636 0.030048 0
1.122650 0.057960 0
1.122381 0.072844 0
1.118687 0.077783 0
1.107257 0.067826 0
1.097762 0.041011 0
1.106482 0.006210 0
1.127575 -0.024800 0
1.154138 -0.044293 0
1.169920 -0.052970 0
1.161525 -0.065173 0
1.134093 -0.090077 0
1.128917 -0.114856 0
1.154344 -0.116108 0
1.181148 -0.089946 0
1.201961 -0.051578 0
1.241298 -0.000831 0
1.283034 0.062439 0
1.294508 0.084845 0
1.290469 0.077134 0
1.000000 -0.000935 0
1.000319 -0.002743 0
1.000969 -0.004460 0
1.001906 -0.006170 0
1.003115 -0.007966 0
1.004574 -0.009948 0
1.006267 -0.012235 0
1.008211 -0.014974 0
1.010440 -0.018336 0
1.012982 -0.022544 0
1.015898 -0.027900 0
1.019283 -0.034807 0
1.023363 -0.043753 0
1.028483 -0.055245 0
1.034839 -0.069928 0
1.042614 -0.088888 0
1.051968 -0.114271 0
1.066906 -0.147589 0
1.087947 -0.191007 0
1.124699 -0.245933 0
1.178972 -0.306523 0
1.267737 -0.413284 0
1.549615 -0.410224 0
1.644615 -0.241461 0
1.653229 -0.083346 0
1.639651 0.040964 0
1.605402 0.140036 0
1.562093 0.220030 0
1.514920 0.292524 0
1.426878 0.373347 0
1.289962 0.399981 0
1.065062 0.273752 0
0.661192 0.235900 0
0.460912 0.159704 0
0.309515 -0.259624 0
0.308004 -0.798536 0
0.557873 -0.889087 0
1.057216 -0.502448 0
1.297565 -0.105503 0
1.434197 0.224102 0
1.497212 0.445217 0
1.461214 0.545769 0
1.362130 0.564132 0
1.235897 0.594534 0
1.120527 0.705438 0
1.109075 0.764461 0
1.138573 0.650694 0
1.126972 0.496169 0
0.925441 0.354690 0
0.717024 0.130244 0
0.647664 -0.145464 0
0.644206 -0.364380 0
0.702844 -0.471937 0
0.789882 -0.497910 0
0.820117 -0.527811 0
0.781086 -0.581711 0
0.762225 -0.564866 0
0.823881 -0.440057 0
0.896464 -0.271621 0
0.881975 -0.084922 0
0.756671 0.122041 0
0.643286 0.313378 0
0.678826 0.401031 0
0.877680 0.368219 0
0.936490 0.388240 0
0.767801 0.500576 0
0.653026 0.439544 0
0.711521 0.147875 0
0.805614 -0.085822 0
0.865374 -0.124208 0
0.933364 -0.062909 0
0.930824 -0.055737 0
0.812482 -0.194798 0
0.686890 -0.369658 0
0.666920 -0.432454 0
0.748142 -0.386243 0
0.851858 -0.302058 0
0.939173 -0.223131 0
1.006389 -0.155381 0
1.043830 -0.081207 0
1.059016 -0.002918 0
1.055740 0.045967 0
1.019971 0.053013 0
0.976165 0.053037 0
0.953845 0.066734 0
0.945603 0.072207 0
0.948686 0.045221 0
0.976043 -0.000300 0
1.027336 -0.038417 0
1.071137 -0.054534 0
1.094341 -0.041035 0
1.087623 -0.021651 0
1.051146 -0.048469 0
1.012606 -0.114496 0
1.028185 -0.139465 0
1.066632 -0.107246 0
1.054576 -0.080450 0
0.990307 -0.061152 0
0.944202 -0.000051 0
0.935391 0.054346 0
0.934156 0.068179 0
1.000000 -0.001074 0
1.000181 -0.003165 0
1.000646 -0.005154 0
1.001336 -0.007116 0
1.002270 -0.009144 0
1.003386 -0.011323 0
1.004608 -0.013793 0
1.005942 -0.016728 0
1.007421 -0.020292 0
1.008974 -0.024707 0
1.010590 -0.030301 0
1.012193 -0.037565 0
1.013944 -0.047142 0
1.016370 -0.059461 0
1.019318 -0.074942 0
1.022642 -0.094350 0
1.022446 -0.122562 0
1.030013 -0.160735 0
1.034951 -0.214837 0
1.061922 -0.285641 0
1.084234 -0.374999 0
1.212961 -0.641363 0
1.556632 -0.634547 0
1.504434 -0.275194 0
1.428385 -0.065690 0
1.420039 0.068760 0
1.396800 0.175454 0
1.376543 0.249381 0
1.428065 0.341918 0
1.402159 0.461851 0
1.276251 0.602206 0
1.115903 0.829027 0
0.795824 0.721130 0
0.480112 0.283911 0
0.218643 -0.201540 0
0.150488 -0.822921 0
0.102427 -1.274292 0
0.441559 -0.985658 0
0.846571 -0.332174 0
1.076246 0.050879 0
1.209562 0.325231 0
1.307589 0.528398 0
1.320596 0.647368 0
1.253935 0.729728 0
1.193636 0.793940 0
1.215966 0.773449 0
1.238704 0.653711 0
1.176724 0.539177 0
1.084167 0.411581 0
1.009820 0.146389 0
1.021319 -0.117693 0
0.961616 -0.277108 0
0.839767 -0.414991 0
0.755762 -0.516374 0
0.751011 -0.544867 0
0.773451 -0.524079 0
0.764931 -0.508739 0
0.755831 -0.471753 0
0.784149 -0.321888 0
0.822199 -0.054723 0
0.847590 0.187187 0
0.887922 0.271342 0
0.959771 0.227671 0
0.899890 0.313986 0
0.700106 0.581590 0
0.613851 0.657384 0
0.751601 0.394799 0
0.793787 0.083735 0
0.605299 -0.058261 0
0.451413 -0.115729 0
0.458745 -0.138245 0
0.600355 -0.106462 0
0.712940 -0.124424 0
0.699344 -0.257388 0
0.637610 -0.400263 0
0.631209 -0.442952 0
0.681690 -0.402813 0
0.744166 -0.328275 0
0.781850 -0.229324 0
0.792864 -0.122844 0
0.816613 -0.026942 0
0.867846 0.069093 0
0.901172 0.137535 0
0.879804 0.138971 0
0.822445 0.108346 0
0.766604 0.072986 0
0.743606 0.010571 0
0.762009 -0.072440 0
0.821684 -0.119894 0
0.873884 -0.111298 0
0.899805 -0.069457 0
0.931072 -0.021979 0
0.981840 -0.015061 0
0.993041 -0.091895 0
0.920214 -0.170134 0
0.806673 -0.116338 0
0.693709 0.024747 0
0.590148 0.109542 0
0.542775 0.117354 0
0.543855 0.094890 0
0.539060 0.079947 0
1.000000 -0.001132 0
0.999992 -0.003408 0
1.000364 -0.005624 0
1.000756 -0.007802 0
1.001387 -0.010024 0
1.002190 -0.012293 0
1.002940 -0.014798 0
1.003648 -0.017795 0
1.004459 -0.021375 0
1.005041 -0.025719 0
1.005515 -0.031126 0
1.005494 -0.038168 0
1.005111 -0.047936 0
1.004681 -0.060625 0
1.002914 -0.076205 0
1.003508 -0.092022 0
0.997171 -0.121647 0
0.999156 -0.160099 0
0.980544 -0.222921 0
0.991092 -0.295221 0
0.950382 -0.457566 0
1.082832 -0.885686 0
0.756643 -0.588483 0
0.001203 0.000000 0
0.000568 0.000000 0
0.596489 0.071502 0
0.674558 0.183531 0
0.554948 0.188765 0
0.923908 0.266908 0
0.979753 0.525161 0
1.059060 0.686237 0
0.998939 0.754179 0
0.947461 0.871692 0
0.625616 0.736885 0
0.486677 0.070000 0
0.404799 -0.682319 0
0.258253 -1.180155 0
0.143571 -1.246591 0
0.502017 -0.740188 0
0.798165 -0.138887 0
0.980756 0.213876 0
1.100365 0.434738 0
1.175935 0.617789 0
1.231184 0.721497 0
1.270453 0.743409 0
1.279404 0.719396 0
1.229728 0.689940 0
1.140599 0.650709 0
1.088978 0.521597 0
1.010233 0.193096 0
0.840557 -0.097256 0
0.722065 -0.182825 0
0.661189 -0.266079 0
0.626181 -0.409151 0
0.613899 -0.545496 0
0.643305 -0.595626 0
0.698952 -0.547242 0
0.717088 -0.459272 0
0.692225 -0.337986 0
0.703932 -0.148359 0
0.787236 0.056322 0
0.861735 0.201201 0
0.809314 0.389066 0
0.604439 0.627887 0
0.513308 0.674283 0
0.654565 0.449084 0
0.803603 0.259611 0
0.739817 0.294181 0
0.546099 0.256554 0
0.369284 0.022349 0
0.245645 -0.211848 0
0.298093 -0.309930 0
0.468896 -0.293785 0
0.624424 -0.294325 0
0.660344 -0.364316 0
0.611834 -0.430321 0
0.588930 -0.415013 0
0.618084 -0.323290 0
0.675719 -0.204078 0
0.738244 -0.115969 0
0.775721 -0.077899 0
0.782580 -0.038591 0
0.789450 0.041056 0
0.791466 0.131764 0
0.785569 0.179934 0
0.797206 0.151046 0
0.807007 0.049816 0
0.770023 -0.078377 0
0.748015 -0.150292 0
0.777524 -0.132656 0
0.803596 -0.098223 0
0.787389 -0.103687 0
0.772722 -0.110439 0
0.775030 -0.052870 0
0.703341 0.046902 0
0.583445 0.119258 0
0.528135 0.136075 0
0.549217 0.089782 0
0.580327 0.046242 0
0.555442 0.058059 0
0.546790 0.076685 0
1.000000 -0.001081 0
0.999867 -0.003548 0
1.000137 -0.005927 0
1.000212 -0.008147 0
1.000522 -0.010585 0
1.001083 -0.012883 0
1.001331 -0.015259 0
1.001301 -0.018254 0
1.002025 -0.021692 0
1.001235 -0.025770 0
1.001613 -0.030760 0
0.998718 -0.037167 0
1.000081 -0.046335 0
0.994959 -0.057270 0
0.993787 -0.073774 0
0.982024 -0.088613 0
0.986149 -0.118215 0
0.958602 -0.144113 0
0.958754 -0.206778 0
0.886252 -0.255485 0
0.870780 -0.466743 0
0.647813 -0.560844 0
0.000000 -0.004075 0
-0.662024 0.210870 0
-0.594097 0.000000 0
0.000000 0.000000 0
0.083682 0.229175 0
0.177547 0.000030 0
0.381529 -0.082887 0
0.839076 0.326699 0
0.736314 0.583020 0
0.589219 0.940626 0
0.362340 1.094453 0
0.291877 0.744695 0
0.431689 0.019279 0
0.465192 -0.594496 0
0.426947 -1.013063 0
0.275172 -1.229420 0
0.314274 -0.986766 0
0.565492 -0.427858 0
0.800058 0.023034 0
0.924919 0.333223 0
1.012256 0.516551 0
1.073802 0.635213 0
1.100316 0.745723 0
1.081389 0.814177 0
1.060079 0.792519 0
1.078237 0.679930 0
1.103041 0.541951 0
1.014065 0.394814 0
0.762155 0.170478 0
0.599719 -0.097737 0
0.542542 -0.319102 0
0.537479 -0.469079 0
0.554345 -0.561987 0
0.578569 -0.609129 0
0.606399 -0.582518 0
0.640237 -0.465022 0
0.651231 -0.308728 0
0.632970 -0.149731 0
0.612945 0.029388 0
0.585117 0.249267 0
0.525114 0.484970 0
0.561385 0.609996 0
0.718695 0.531467 0
0.843046 0.367092 0
0.810652 0.309550 0
0.763896 0.341241 0
0.818224 0.312275 0
0.850527 0.184729 0
0.777336 -0.067051 0
0.569473 -0.329711 0
0.439903 -0.450753 0
0.497480 -0.448833 0
0.632965 -0.387670 0
0.695765 -0.371537 0
0.670732 -0.409062 0
0.628567 -0.415063 0
0.632481 -0.349482 0
0.680653 -0.222845 0
0.714117 -0.071278 0
0.702234 0.055366 0
0.687591 0.128650 0
0.718405 0.142852 0
0.801529 0.102605 0
0.911638 0.051547 0
0.991091 0.037754 0
0.983428 -0.013448 0
0.870729 -0.127395 0
0.776653 -0.166879 0
0.768911 -0.079323 0
0.775524 0.008894 0
0.738686 -0.002703 0
0.675626 -0.022515 0
0.649783 0.021451 0
0.685085 0.058867 0
0.754913 0.058974 0
0.822166 0.057349 0
0.740794 0.111128 0
0.589460 0.128426 0
0.567029 0.097085 0
1.000000 -0.001015 0
0.999894 -0.003565 0
0.999807 -0.005976 0
0.999954 -0.008195 0
0.999748 -0.010903 0
1.000291 -0.013110 0
0.999927 -0.015024 0
0.999738 -0.018496 0
0.998520 -0.021316 0
0.999493 -0.025314 0
0.997186 -0.028615 0
0.996590 -0.036642 0
0.992042 -0.044184 0
0.990704 -0.054336 0
0.984155 -0.063276 0
0.973182 -0.084389 0
0.964382 -0.098230 0
0.938030 -0.132709 0
0.921939 -0.150576 0
0.842342 -0.207252 0
0.800592 -0.219131 0
0.448013 -0.114481 0
0.334727 -0.040243 0
0.000000 0.000000 0
0.000000 0.000000 0
0.000000 0.000000 0
0.000000 0.000000 0
0.211010 -0.127246 0
-0.000691 -0.394622 0
0.351807 0.170376 0
0.331293 0.936095 0
0.188163 1.128153 0
-0.031019 1.169034 0
0.226987 0.667537 0
0.446951 -0.103313 0
0.523289 -0.677576 0
0.531117 -0.990134 0
0.475543 -1.133916 0
0.358397 -1.030507 0
0.445935 -0.624669 0
0.633698 -0.145548 0
0.814701 0.222542 0
0.932544 0.468908 0
0.983780 0.633439 0
1.044614 0.735826 0
1.130122 0.759637 0
1.207769 0.693095 0
1.227535 0.607750 0
1.147092 0.585773 0
1.046199 0.533986 0
0.970393 0.317093 0
0.888404 0.036792 0
0.804289 -0.203836 0
0.712978 -0.420951 0
0.622680 -0.586581 0
0.597229 -0.647677 0
0.616322 -0.608906 0
0.641404 -0.504100 0
0.664857 -0.330714 0
0.676654 -0.110069 0