# vtk DataFile Version 2.0
generated by CFD-lab course output (written by Tobias Neckel) 
ASCII

DATASET STRUCTURED_GRID
DIMENSIONS  101 21 1 
POINTS 2121 float

0.000000 0.000000 0
0.100000 0.000000 0
0.200000 0.000000 0
0.300000 0.000000 0
0.400000 0.000000 0
0.500000 0.000000 0
0.600000 0.000000 0
0.700000 0.000000 0
0.800000 0.000000 0
0.900000 0.000000 0
1.000000 0.000000 0
1.100000 0.000000 0
1.200000 0.000000 0
1.300000 0.000000 0
1.400000 0.000000 0
1.500000 0.000000 0
1.600000 0.000000 0
1.700000 0.000000 0
1.800000 0.000000 0
1.900000 0.000000 0
2.000000 0.000000 0
2.100000 0.000000 0
2.200000 0.000000 0
2.300000 0.000000 0
2.400000 0.000000 0
2.500000 0.000000 0
2.600000 0.000000 0
2.700000 0.000000 0
2.800000 0.000000 0
2.900000 0.000000 0
3.000000 0.000000 0
3.100000 0.000000 0
3.200000 0.000000 0
3.300000 0.000000 0
3.400000 0.000000 0
3.500000 0.000000 0
3.600000 0.000000 0
3.700000 0.000000 0
3.800000 0.000000 0
3.900000 0.000000 0
4.000000 0.000000 0
4.100000 0.000000 0
4.200000 0.000000 0
4.300000 0.000000 0
4.400000 0.000000 0
4.500000 0.000000 0
4.600000 0.000000 0
4.700000 0.000000 0
4.800000 0.000000 0
4.900000 0.000000 0
5.000000 0.000000 0
5.100000 0.000000 0
5.200000 0.000000 0
5.300000 0.000000 0
5.400000 0.000000 0
5.500000 0.000000 0
5.600000 0.000000 0
5.700000 0.000000 0
5.800000 0.000000 0
5.900000 0.000000 0
6.000000 0.000000 0
6.100000 0.000000 0
6.200000 0.000000 0
6.300000 0.000000 0
6.400000 0.000000 0
6.500000 0.000000 0
6.600000 0.000000 0
6.700000 0.000000 0
6.800000 0.000000 0
6.900000 0.000000 0
7.000000 0.000000 0
7.100000 0.000000 0
7.200000 0.000000 0
7.300000 0.000000 0
7.400000 0.000000 0
7.500000 0.000000 0
7.600000 0.000000 0
7.700000 0.000000 0
7.800000 0.000000 0
7.900000 0.000000 0
8.000000 0.000000 0
8.100000 0.000000 0
8.200000 0.000000 0
8.300000 0.000000 0
8.400000 0.000000 0
8.500000 0.000000 0
8.600000 0.000000 0
8.700000 0.000000 0
8.800000 0.000000 0
8.900000 0.000000 0
9.000000 0.000000 0
9.100000 0.000000 0
9.200000 0.000000 0
9.300000 0.000000 0
9.400000 0.000000 0
9.500000 0.000000 0
9.600000 0.000000 0
9.700000 0.000000 0
9.800000 0.000000 0
9.900000 0.000000 0
10.000000 0.000000 0
0.000000 0.100000 0
0.100000 0.100000 0
0.200000 0.100000 0
0.300000 0.100000 0
0.400000 0.100000 0
0.500000 0.100000 0
0.600000 0.100000 0
0.700000 0.100000 0
0.800000 0.100000 0
0.900000 0.100000 0
1.000000 0.100000 0
1.100000 0.100000 0
1.200000 0.100000 0
1.300000 0.100000 0
1.400000 0.100000 0
1.500000 0.100000 0
1.600000 0.100000 0
1.700000 0.100000 0
1.800000 0.100000 0
1.900000 0.100000 0
2.000000 0.100000 0
2.100000 0.100000 0
2.200000 0.100000 0
2.300000 0.100000 0
2.400000 0.100000 0
2.500000 0.100000 0
2.600000 0.100000 0
2.700000 0.100000 0
2.800000 0.100000 0
2.900000 0.100000 0
3.000000 0.100000 0
3.100000 0.100000 0
3.200000 0.100000 0
3.300000 0.100000 0
3.400000 0.100000 0
3.500000 0.100000 0
3.600000 0.100000 0
3.700000 0.100000 0
3.800000 0.100000 0
3.900000 0.100000 0
4.000000 0.100000 0
4.100000 0.100000 0
4.200000 0.100000 0
4.300000 0.100000 0
4.400000 0.100000 0
4.500000 0.100000 0
4.600000 0.100000 0
4.700000 0.100000 0
4.800000 0.100000 0
4.900000 0.100000 0
5.000000 0.100000 0
5.100000 0.100000 0
5.200000 0.100000 0
5.300000 0.100000 0
5.400000 0.100000 0
5.500000 0.100000 0
5.600000 0.100000 0
5.700000 0.100000 0
5.800000 0.100000 0
5.900000 0.100000 0
6.000000 0.100000 0
6.100000 0.100000 0
6.200000 0.100000 0
6.300000 0.100000 0
6.400000 0.100000 0
6.500000 0.100000 0
6.600000 0.100000 0
6.700000 0.100000 0
6.800000 0.100000 0
6.900000 0.100000 0
7.000000 0.100000 0
7.100000 0.100000 0
7.200000 0.100000 0
7.300000 0.100000 0
7.400000 0.100000 0
7.500000 0.100000 0
7.600000 0.100000 0
7.700000 0.100000 0
7.800000 0.100000 0
7.900000 0.100000 0
8.000000 0.100000 0
8.100000 0.100000 0
8.200000 0.100000 0
8.300000 0.100000 0
8.400000 0.100000 0
8.500000 0.100000 0
8.600000 0.100000 0
8.700000 0.100000 0
8.800000 0.100000 0
8.900000 0.100000 0
9.000000 0.100000 0
9.100000 0.100000 0
9.200000 0.100000 0
9.300000 0.100000 0
9.400000 0.100000 0
9.500000 0.100000 0
9.600000 0.100000 0
9.700000 0.100000 0
9.800000 0.100000 0
9.900000 0.100000 0
10.000000 0.100000 0
0.000000 0.200000 0
0.100000 0.200000 0
0.200000 0.200000 0
0.300000 0.200000 0
0.400000 0.200000 0
0.500000 0.200000 0
0.600000 0.200000 0
0.700000 0.200000 0
0.800000 0.200000 0
0.900000 0.200000 0
1.000000 0.200000 0
1.100000 0.200000 0
1.200000 0.200000 0
1.300000 0.200000 0
1.400000 0.200000 0
1.500000 0.200000 0
1.600000 0.200000 0
1.700000 0.200000 0
1.800000 0.200000 0
1.900000 0.200000 0
2.000000 0.200000 0
2.100000 0.200000 0
2.200000 0.200000 0
2.300000 0.200000 0
2.400000 0.200000 0
2.500000 0.200000 0
2.600000 0.200000 0
2.700000 0.200000 0
2.800000 0.200000 0
2.900000 0.200000 0
3.000000 0.200000 0
3.100000 0.200000 0
3.200000 0.200000 0
3.300000 0.200000 0
3.400000 0.200000 0
3.500000 0.200000 0
3.600000 0.200000 0
3.700000 0.200000 0
3.800000 0.200000 0
3.900000 0.200000 0
4.000000 0.200000 0
4.100000 0.200000 0
4.200000 0.200000 0
4.300000 0.200000 0
4.400000 0.200000 0
4.500000 0.200000 0
4.600000 0.200000 0
4.700000 0.200000 0
4.800000 0.200000 0
4.900000 0.200000 0
5.000000 0.200000 0
5.100000 0.200000 0
5.200000 0.200000 0
5.300000 0.200000 0
5.400000 0.200000 0
5.500000 0.200000 0
5.600000 0.200000 0
5.700000 0.200000 0
5.800000 0.200000 0
5.900000 0.200000 0
6.000000 0.200000 0
6.100000 0.200000 0
6.200000 0.200000 0
6.300000 0.200000 0
6.400000 0.200000 0
6.500000 0.200000 0
6.600000 0.200000 0
6.700000 0.200000 0
6.800000 0.200000 0
6.900000 0.200000 0
7.000000 0.200000 0
7.100000 0.200000 0
7.200000 0.200000 0
7.300000 0.200000 0
7.400000 0.200000 0
7.500000 0.200000 0
7.600000 0.200000 0
7.700000 0.200000 0
7.800000 0.200000 0
7.900000 0.200000 0
8.000000 0.200000 0
8.100000 0.200000 0
8.200000 0.200000 0
8.300000 0.200000 0
8.400000 0.200000 0
8.500000 0.200000 0
8.600000 0.200000 0
8.700000 0.200000 0
8.800000 0.200000 0
8.900000 0.200000 0
9.000000 0.200000 0
9.100000 0.200000 0
9.200000 0.200000 0
9.300000 0.200000 0
9.400000 0.200000 0
9.500000 0.200000 0
9.600000 0.200000 0
9.700000 0.200000 0
9.800000 0.200000 0
9.900000 0.200000 0
10.000000 0.200000 0
0.000000 0.300000 0
0.100000 0.300000 0
0.200000 0.300000 0
0.300000 0.300000 0
0.400000 0.300000 0
0.500000 0.300000 0
0.600000 0.300000 0
0.700000 0.300000 0
0.800000 0.300000 0
0.900000 0.300000 0
1.000000 0.300000 0
1.100000 0.300000 0
1.200000 0.300000 0
1.300000 0.300000 0
1.400000 0.300000 0
1.500000 0.300000 0
1.600000 0.300000 0
1.700000 0.300000 0
1.800000 0.300000 0
1.900000 0.300000 0
2.000000 0.300000 0
2.100000 0.300000 0
2.200000 0.300000 0
2.300000 0.300000 0
2.400000 0.300000 0
2.500000 0.300000 0
2.600000 0.300000 0
2.700000 0.300000 0
2.800000 0.300000 0
2.900000 0.300000 0
3.000000 0.300000 0
3.100000 0.300000 0
3.200000 0.300000 0
3.300000 0.300000 0
3.400000 0.300000 0
3.500000 0.300000 0
3.600000 0.300000 0
3.700000 0.300000 0
3.800000 0.300000 0
3.900000 0.300000 0
4.000000 0.300000 0
4.100000 0.300000 0
4.200000 0.300000 0
4.300000 0.300000 0
4.400000 0.300000 0
4.500000 0.300000 0
4.600000 0.300000 0
4.700000 0.300000 0
4.800000 0.300000 0
4.900000 0.300000 0
5.000000 0.300000 0
5.100000 0.300000 0
5.200000 0.300000 0
5.300000 0.300000 0
5.400000 0.300000 0
5.500000 0.300000 0
5.600000 0.300000 0
5.700000 0.300000 0
5.800000 0.300000 0
5.900000 0.300000 0
6.000000 0.300000 0
6.100000 0.300000 0
6.200000 0.300000 0
6.300000 0.300000 0
6.400000 0.300000 0
6.500000 0.300000 0
6.600000 0.300000 0
6.700000 0.300000 0
6.800000 0.300000 0
6.900000 0.300000 0
7.000000 0.300000 0
7.100000 0.300000 0
7.200000 0.300000 0
7.300000 0.300000 0
7.400000 0.300000 0
7.500000 0.300000 0
7.600000 0.300000 0
7.700000 0.300000 0
7.800000 0.300000 0
7.900000 0.300000 0
8.000000 0.300000 0
8.100000 0.300000 0
8.200000 0.300000 0
8.300000 0.300000 0
8.400000 0.300000 0
8.500000 0.300000 0
8.600000 0.300000 0
8.700000 0.300000 0
8.800000 0.300000 0
8.900000 0.300000 0
9.000000 0.300000 0
9.100000 0.300000 0
9.200000 0.300000 0
9.300000 0.300000 0
9.400000 0.300000 0
9.500000 0.300000 0
9.600000 0.300000 0
9.700000 0.300000 0
9.800000 0.300000 0
9.900000 0.300000 0
10.000000 0.300000 0
0.000000 0.400000 0
0.100000 0.400000 0
0.200000 0.400000 0
0.300000 0.400000 0
0.400000 0.400000 0
0.500000 0.400000 0
0.600000 0.400000 0
0.700000 0.400000 0
0.800000 0.400000 0
0.900000 0.400000 0
1.000000 0.400000 0
1.100000 0.400000 0
1.200000 0.400000 0
1.300000 0.400000 0
1.400000 0.400000 0
1.500000 0.400000 0
1.600000 0.400000 0
1.700000 0.400000 0
1.800000 0.400000 0
1.900000 0.400000 0
2.000000 0.400000 0
2.100000 0.400000 0
2.200000 0.400000 0
2.300000 0.400000 0
2.400000 0.400000 0
2.500000 0.400000 0
2.600000 0.400000 0
2.700000 0.400000 0
2.800000 0.400000 0
2.900000 0.400000 0
3.000000 0.400000 0
3.100000 0.400000 0
3.200000 0.400000 0
3.300000 0.400000 0
3.400000 0.400000 0
3.500000 0.400000 0
3.600000 0.400000 0
3.700000 0.400000 0
3.800000 0.400000 0
3.900000 0.400000 0
4.000000 0.400000 0
4.100000 0.400000 0
4.200000 0.400000 0
4.300000 0.400000 0
4.400000 0.400000 0
4.500000 0.400000 0
4.600000 0.400000 0
4.700000 0.400000 0
4.800000 0.400000 0
4.900000 0.400000 0
5.000000 0.400000 0
5.100000 0.400000 0
5.200000 0.400000 0
5.300000 0.400000 0
5.400000 0.400000 0
5.500000 0.400000 0
5.600000 0.400000 0
5.700000 0.400000 0
5.800000 0.400000 0
5.900000 0.400000 0
6.000000 0.400000 0
6.100000 0.400000 0
6.200000 0.400000 0
6.300000 0.400000 0
6.400000 0.400000 0
6.500000 0.400000 0
6.600000 0.400000 0
6.700000 0.400000 0
6.800000 0.400000 0
6.900000 0.400000 0
7.000000 0.400000 0
7.100000 0.400000 0
7.200000 0.400000 0
7.300000 0.400000 0
7.400000 0.400000 0
7.500000 0.400000 0
7.600000 0.400000 0
7.700000 0.400000 0
7.800000 0.400000 0
7.900000 0.400000 0
8.000000 0.400000 0
8.100000 0.400000 0
8.200000 0.400000 0
8.300000 0.400000 0
8.400000 0.400000 0
8.500000 0.400000 0
8.600000 0.400000 0
[...]
POINT_DATA 2121 

VECTORS velocity float
0.500000 0.000000 0
-0.000002 0.000000 0
-0.000017 0.000000 0
-0.000032 0.000000 0
-0.000057 0.000000 0
-0.000097 0.000000 0
-0.000154 0.000000 0
-0.000165 0.000000 0
-0.000195 0.000000 0
-0.000241 0.000000 0
-0.000292 0.000000 0
-0.000345 0.000000 0
-0.000402 0.000000 0
-0.000463 0.000000 0
-0.000528 0.000000 0
-0.000598 0.000000 0
-0.000673 0.000000 0
-0.000751 0.000000 0
-0.000832 0.000000 0
-0.000911 0.000000 0
-0.000981 0.000000 0
-0.001030 0.000000 0
-0.001026 0.000000 0
-0.000895 0.000000 0
-0.000631 0.000000 0
-0.000162 0.000000 0
0.000560 0.000000 0
0.001502 0.000000 0
0.002331 0.000000 0
0.003108 0.000000 0
0.003852 0.000000 0
0.004554 0.000000 0
0.005153 0.000000 0
0.005434 0.000000 0
0.006584 0.000000 0
0.006213 0.000000 0
0.007079 0.000000 0
0.007209 0.000000 0
0.005072 0.000000 0
0.002571 0.000000 0
0.001898 0.000000 0
-0.002280 0.000000 0
-0.013016 0.000000 0
-0.022613 0.000000 0
-0.024755 0.000000 0
-0.024352 0.000000 0
-0.027761 0.000000 0
-0.032433 0.000000 0
-0.034292 0.000000 0
-0.023345 0.000000 0
-0.018338 0.000000 0
-0.009566 0.000000 0
0.003099 0.000000 0
0.015038 0.000000 0
0.023242 0.000000 0
0.035191 0.000000 0
0.037182 0.000000 0
0.030441 0.000000 0
0.020443 0.000000 0
0.014869 0.000000 0
0.009386 0.000000 0
0.004398 0.000000 0
-0.000083 0.000000 0
-0.002010 0.000000 0
-0.002525 0.000000 0
-0.000901 0.000000 0
0.000029 0.000000 0
0.000124 0.000000 0
-0.000249 0.000000 0
-0.000717 0.000000 0
-0.000994 0.000000 0
-0.000803 0.000000 0
-0.000634 0.000000 0
-0.000551 0.000000 0
-0.000507 0.000000 0
-0.000471 0.000000 0
-0.000444 0.000000 0
-0.000425 0.000000 0
-0.000408 0.000000 0
-0.000389 0.000000 0
-0.000371 0.000000 0
-0.000365 0.000000 0
-0.000368 0.000000 0
-0.000369 0.000000 0
-0.000355 0.000000 0
-0.000332 0.000000 0
-0.000321 0.000000 0
-0.000328 0.000000 0
-0.000341 0.000000 0
-0.000339 0.000000 0
-0.000311 0.000000 0
-0.000269 0.000000 0
-0.000242 0.000000 0
-0.000246 0.000000 0
-0.000275 0.000000 0
-0.000309 0.000000 0
-0.000324 0.000000 0
-0.000325 0.000000 0
-0.000302 0.000000 0
-0.000282 0.000000 0
-0.000277 0.000000 0
1.000000 0.000377 0
0.999924 0.000868 0
0.999905 0.000893 0
1.000119 0.000649 0
1.000708 0.000219 0
1.001823 -0.000533 0
1.003627 -0.001516 0
1.006234 -0.002348 0
1.009730 -0.003222 0
1.014319 -0.004472 0
1.020251 -0.006037 0
1.027830 -0.007962 0
1.037437 -0.010337 0
1.049561 -0.013277 0
1.064819 -0.016914 0
1.083978 -0.021381 0
1.107954 -0.026769 0
1.137767 -0.033054 0
1.174402 -0.039989 0
1.218541 -0.046945 0
1.270099 -0.052763 0
1.327338 -0.055880 0
1.386930 -0.054436 0
1.442481 -0.047723 0
1.486844 -0.036315 0
1.517569 -0.021865 0
1.533484 -0.005649 0
1.533557 0.011866 0
1.516250 0.028889 0
1.480789 0.044809 0
1.429406 0.059968 0
1.363659 0.073899 0
1.285331 0.084561 0
1.197145 0.091268 0
1.104049 0.113985 0
0.999728 0.128018 0
0.854813 0.125236 0
0.706751 0.127898 0
0.590960 0.114050 0
0.514598 0.090204 0
0.393809 0.083518 0
0.272622 0.040973 0
0.273123 -0.086617 0
0.416651 -0.211402 0
0.667426 -0.258217 0
0.943103 -0.263249 0
1.199684 -0.271456 0
1.449273 -0.282256 0
1.677551 -0.263389 0
1.888383 -0.199659 0
2.065328 -0.132798 0
2.177954 -0.066286 0
2.215693 0.020319 0
2.176466 0.095371 0
2.056479 0.162684 0
1.876372 0.232921 0
1.680182 0.265748 0
1.503282 0.240643 0
1.357999 0.186092 0
1.236315 0.143854 0
1.134284 0.105696 0
1.057612 0.058857 0
1.000093 0.015740 0
0.960052 -0.010215 0
0.931831 -0.017533 0
0.902943 -0.011939 0
0.882879 -0.001908 0
0.873097 0.000188 0
0.870622 -0.002688 0
0.875144 -0.006633 0
0.885288 -0.008361 0
0.894366 -0.007355 0
0.900509 -0.005778 0
0.905380 -0.004799 0
0.909905 -0.004216 0
0.914133 -0.003747 0
0.918007 -0.003372 0
0.921497 -0.003098 0
0.924594 -0.002856 0
0.927377 -0.002589 0
0.930019 -0.002342 0
0.932657 -0.002212 0
0.935251 -0.002197 0
0.937634 -0.002162 0
0.939731 -0.001979 0
0.941672 -0.001706 0
0.943661 -0.001540 0
0.945751 -0.001569 0
0.947798 -0.001669 0
0.949526 -0.001617 0
0.950796 -0.001294 0
0.951735 -0.000828 0
0.952605 -0.000494 0
0.953606 -0.000463 0
0.954794 -0.000699 0
0.956057 -0.000987 0
0.957257 -0.001125 0
0.958215 -0.001047 0
0.958933 -0.000891 0
0.959473 -0.000703 0
0.959848 -0.000564 0
1.000000 0.000088 0
1.000483 0.000110 0
1.001306 -0.000187 0
1.002441 -0.000796 0
1.004001 -0.001698 0
1.006043 -0.002914 0
1.008546 -0.004407 0
1.011661 -0.006098 0
1.015764 -0.008080 0
1.020897 -0.010517 0
1.027240 -0.013506 0
1.035053 -0.017182 0
1.044677 -0.021727 0
1.056556 -0.027376 0
1.071279 -0.034411 0
1.089611 -0.043129 0
1.112538 -0.053783 0
1.141281 -0.066442 0
1.177236 -0.080768 0
1.221813 -0.095691 0
1.276058 -0.108792 0
1.338426 -0.116828 0
1.407852 -0.115140 0
1.470683 -0.099912 0
1.518165 -0.075089 0
1.550919 -0.046642 0
1.569239 -0.015992 0
1.573297 0.017229 0
1.561698 0.052762 0
1.530786 0.086836 0
1.480801 0.117122 0
1.415612 0.144066 0
1.336873 0.166504 0
1.246295 0.181273 0
1.142935 0.197408 0
1.034607 0.249227 0
0.920197 0.292968 0
0.883587 0.263844 0
0.806903 0.192145 0
0.618409 0.197144 0
0.413722 0.241970 0
0.360252 0.120679 0
0.391787 -0.144035 0
0.456449 -0.394308 0
0.607681 -0.526456 0
0.860160 -0.532262 0
1.108235 -0.506173 0
1.320607 -0.477869 0
1.479066 -0.439112 0
1.618367 -0.387779 0
1.755734 -0.289572 0
1.857170 -0.150366 0
1.914100 0.001487 0
1.914165 0.159213 0
1.839206 0.300094 0
1.726371 0.376296 0
1.607165 0.373090 0
1.487581 0.322182 0
1.369388 0.266966 0
1.265996 0.223715 0
1.191888 0.178703 0
1.131313 0.134190 0
1.085387 0.097559 0
1.056233 0.068261 0
1.030998 0.057107 0
1.005392 0.048951 0
0.993799 0.029844 0
0.988846 0.012254 0
0.982642 -0.002050 0
0.971079 -0.014670 0
0.955113 -0.019225 0
0.943577 -0.015224 0
0.939515 -0.011018 0
0.940720 -0.009400 0
0.945004 -0.008758 0
0.949733 -0.008107 0
0.953933 -0.007369 0
0.957525 -0.006593 0
0.960722 -0.005886 0
0.963785 -0.005431 0
0.966858 -0.005287 0
0.969882 -0.005239 0
0.972713 -0.004984 0
0.975306 -0.004486 0
0.977799 -0.004045 0
0.980371 -0.003938 0
0.983017 -0.004087 0
0.985507 -0.004144 0
0.987584 -0.003783 0
0.989195 -0.003006 0
0.990562 -0.002216 0
0.991976 -0.001818 0
0.993597 -0.001879 0
0.995382 -0.002197 0
0.997095 -0.002460 0
0.998497 -0.002471 0
0.999521 -0.002165 0
1.000223 -0.001685 0
1.000738 -0.001266 0
1.001052 -0.000922 0
1.001237 -0.000748 0
1.000000 -0.000099 0
1.000320 -0.000429 0
1.000934 -0.001062 0
1.001873 -0.002043 0
1.003210 -0.003381 0
1.004995 -0.005077 0
1.007263 -0.007132 0
1.010124 -0.009563 0
1.013754 -0.012456 0
1.018265 -0.015945 0
1.023811 -0.020190 0
1.030599 -0.025395 0
1.038910 -0.031837 0
1.049120 -0.039876 0
1.061754 -0.049965 0
1.077551 -0.062636 0
1.097559 -0.078435 0
1.123290 -0.097749 0
1.156668 -0.120516 0
1.200475 -0.145764 0
1.257992 -0.169375 0
1.328214 -0.187673 0
1.418995 -0.186692 0
1.493034 -0.158037 0
1.544583 -0.116552 0
1.578278 -0.072941 0
1.597633 -0.028029 0
1.604045 0.019404 0
1.597179 0.071397 0
1.572492 0.125702 0
1.522898 0.175138 0
1.455768 0.217824 0
1.377142 0.253875 0
1.288110 0.285203 0
1.180170 0.325671 0
1.077603 0.350752 0
1.064552 0.276253 0
0.917083 0.241189 0
0.711041 0.379225 0
0.514436 0.483384 0
0.441861 0.341673 0
0.524524 0.062907 0
0.609183 -0.182815 0
0.631968 -0.427297 0
0.629120 -0.661929 0
0.731257 -0.763805 0
0.957334 -0.731903 0
1.156445 -0.653087 0
1.302433 -0.561149 0
1.399226 -0.476328 0
1.462347 -0.371602 0
1.524478 -0.224653 0
1.574105 -0.036676 0
1.589038 0.170265 0
1.570905 0.350478 0
1.526126 0.464962 0
1.452368 0.504537 0
1.356848 0.478420 0
1.258695 0.407677 0
1.177728 0.321354 0
1.115943 0.240378 0
1.062021 0.165357 0
1.016792 0.090819 0
0.979047 0.044173 0
0.958401 0.033307 0
0.961362 0.025259 0
0.972257 0.014636 0
0.977427 0.011344 0
0.975006 0.015079 0
0.964914 0.020894 0
0.949538 0.019139 0
0.938081 0.008241 0
0.934349 -0.002923 0
0.936676 -0.010290 0
0.943715 -0.013232 0
0.949306 -0.012678 0
0.953168 -0.011167 0
0.956275 -0.009889 0
0.959300 -0.009119 0
0.962472 -0.008727 0
0.965700 -0.008442 0
0.968796 -0.008071 0
0.971724 -0.007625 0
0.974648 -0.007251 0
0.977706 -0.007047 0
0.980791 -0.006926 0
0.983602 -0.006679 0
0.985911 -0.006139 0
0.987739 -0.005361 0
0.989401 -0.004598 0
0.991222 -0.004079 0
0.993272 -0.003866 0
0.995383 -0.003902 0
0.997286 -0.003964 0
0.998790 -0.003818 0
0.999858 -0.003416 0
1.000584 -0.002854 0
1.001194 -0.002268 0
1.001697 -0.001724 0
1.002049 -0.001205 0
1.002223 -0.000932 0
1.000000 -0.000225 0
1.000212 -0.000815 0
1.000635 -0.001738 0
1.001349 -0.003069 0
1.002450 -0.004817 0
1.003970 -0.006964 0
1.005916 -0.009533 0
1.008363 -0.012586 0
1.011412 -0.016218 0
1.015152 -0.020571 0
1.019692 -0.025837 0
1.025175 -0.032277 0
1.031804 -0.040244 0
1.039840 -0.050216 0
1.049690 -0.062837 0
1.061968 -0.078930 0
1.077652 -0.099518 0
1.098584 -0.125546 0
1.126708 -0.157949 0
1.167341 -0.197012 0
1.226265 -0.236529 0
1.306469 -0.277829 0
1.447103 -0.279959 0
1.537428 -0.225500 0
1.585522 -0.160334 0
1.614195 -0.099694 0
1.632076 -0.041761 0
1.641843 0.017679 0
1.645226 0.084311 0
1.634533 0.161115 0
1.584242 0.233844 0
1.498902 0.289819 0
1.399288 0.334160 0
1.299228 0.378242 0
1.212087 0.407912 0
1.160770 0.364842 0
1.051880 0.453486 0
0.752955 0.617353 0
0.584874 0.594790 0
0.584035 0.466323 0
0.611872 0.231880 0
0.579784 -0.046645 0
0.568268 -0.251480 0
0.613323 -0.414246 0
0.643836 -0.625747 0
0.644328 -0.860477 0
0.735883 -0.931361 0
0.915518 -0.822969 0
1.080606 -0.681895 0
1.174599 -0.547693 0
1.219032 -0.414824 0
1.254186 -0.262125 0
1.281281 -0.063074 0
1.301396 0.162413 0
1.309786 0.363006 0
1.301122 0.494833 0
1.279613 0.542366 0
1.254164 0.515855 0
1.222812 0.446085 0
1.182402 0.366466 0
1.135769 0.294409 0
1.087789 0.233340 0
1.034578 0.180531 0
0.975356 0.126651 0
0.939412 0.074792 0
0.933681 0.035094 0
0.946967 0.013777 0
0.958019 0.009504 0
0.966225 0.010461 0
0.974353 0.010796 0
0.983183 0.007606 0
0.987179 -0.000037 0
0.984315 -0.009616 0
0.976455 -0.018769 0
0.965046 -0.021389 0
0.957758 -0.017562 0
0.955019 -0.014342 0
0.955362 -0.012728 0
0.957529 -0.012086 0
0.960645 -0.011833 0
0.964101 -0.011613 0
0.967577 -0.011266 0
0.971034 -0.010839 0
0.974532 -0.010472 0
0.978018 -0.010191 0
0.981276 -0.009837 0
0.984072 -0.009210 0
0.986347 -0.008284 0
0.988326 -0.007277 0
0.990320 -0.006492 0
0.992497 -0.006090 0
0.994777 -0.005982 0
0.996946 -0.005896 0
0.998658 -0.005608 0
0.999884 -0.005035 0
1.000770 -0.004269 0
1.001460 -0.003505 0
1.002022 -0.002800 0
1.002461 -0.002125 0
1.002764 -0.001452 0
1.002912 -0.001093 0
1.000000 -0.000303 0
1.000126 -0.001055 0
1.000320 -0.002196 0
1.000738 -0.003856 0
1.001596 -0.005999 0
1.002874 -0.008539 0
1.004450 -0.011521 0
1.006399 -0.015056 0
1.008789 -0.019241 0
1.011641 -0.024221 0
1.015017 -0.030208 0
1.018966 -0.037503 0
1.023621 -0.046498 0
1.029041 -0.057757 0
1.035451 -0.072088 0
1.043197 -0.090594 0
1.052715 -0.115047 0
1.066774 -0.146800 0
1.084518 -0.189269 0
1.117247 -0.245318 0
1.165983 -0.308501 0
1.261157 -0.408508 0
1.510992 -0.417649 0
1.584890 -0.296456 0
1.590082 -0.193321 0
1.593434 -0.119497 0
1.602826 -0.055680 0
1.614614 0.006253 0
1.639817 0.078704 0
1.689528 0.186683 0
1.676167 0.310767 0
1.602770 0.402775 0
1.487495 0.453547 0
1.357560 0.472402 0
1.244349 0.464126 0
1.133760 0.510957 0
0.910322 0.684065 0
0.833236 0.708193 0
0.902318 0.548144 0
0.850663 0.456385 0
0.709188 0.345923 0
0.587700 0.106510 0
0.524746 -0.216354 0
0.534358 -0.502867 0
0.609623 -0.692936 0
0.661360 -0.855852 0
0.662622 -1.003094 0
0.726595 -0.997811 0
0.844746 -0.820231 0
0.945823 -0.614754 0
1.006336 -0.451190 0
1.019759 -0.286903 0
1.006921 -0.083887 0
0.997969 0.141760 0
1.009581 0.350752 0
1.037930 0.495134 0
1.068438 0.551494 0
1.085449 0.535220 0
1.085283 0.479438 0
1.069885 0.408396 0
1.048899 0.334990 0
1.030045 0.266547 0
1.016937 0.203251 0
1.010401 0.139337 0
1.004764 0.074981 0
0.996933 0.017703 0
0.983859 -0.009703 0
0.974071 -0.007915 0
0.969472 -0.001257 0
0.968345 0.003934 0
0.968948 0.006311 0
0.968749 0.007106 0
0.965766 0.007799 0
0.959760 0.008977 0
0.950874 0.005464 0
0.946145 -0.002653 0
0.945835 -0.008773 0
0.948428 -0.012402 0
0.952529 -0.014404 0
0.957108 -0.015302 0
0.961621 -0.015378 0
0.966006 -0.015006 0
0.970403 -0.014582 0
0.974787 -0.014238 0
0.978818 -0.013794 0
0.982145 -0.012983 0
0.984789 -0.011753 0
0.987069 -0.010397 0
0.989416 -0.009338 0
0.992015 -0.008773 0
0.994733 -0.008540 0
0.997140 -0.008318 0
0.999010 -0.007787 0
1.000295 -0.006906 0
1.001208 -0.005932 0
1.001939 -0.004996 0
1.002557 -0.004110 0
1.003047 -0.003272 0
1.003417 -0.002468 0
1.003666 -0.001659 0
1.003784 -0.001227 0
1.000000 -0.000343 0
1.000053 -0.001126 0
1.000205 -0.002347 0
1.000138 -0.004342 0
1.000619 -0.006949 0
1.001705 -0.009814 0
1.002859 -0.013054 0
1.004271 -0.016921 0
1.005978 -0.021456 0
1.007861 -0.026795 0
1.010010 -0.033157 0
1.012276 -0.040876 0
1.014885 -0.050314 0
1.017455 -0.062041 0
1.020019 -0.076987 0
1.022897 -0.096189 0
1.023886 -0.123090 0
1.030790 -0.157345 0
1.030400 -0.208418 0
1.050711 -0.278473 0
1.059881 -0.380436 0
1.184960 -0.622835 0
1.531152 -0.603691 0
1.421456 -0.304590 0
1.304312 -0.168879 0
1.231789 -0.112440 0
1.224792 -0.062944 0
1.239337 -0.019314 0
1.275947 0.009395 0
1.491068 0.124762 0
1.563996 0.320599 0
1.580093 0.478489 0
1.532262 0.579367 0
1.433200 0.621386 0
1.300159 0.631710 0
1.128002 0.698867 0
0.995851 0.754008 0
1.069779 0.625356 0
1.067801 0.577362 0
0.823790 0.659451 0
0.691615 0.494841 0
0.690628 0.137795 0
0.701619 -0.198140 0
0.676882 -0.499124 0
0.657254 -0.752750 0
0.677769 -0.913477 0
0.691705 -0.996597 0
0.676592 -1.005093 0
0.688092 -0.901124 0
0.735248 -0.709285 0
0.785935 -0.488761 0
0.807754 -0.262710 0
0.807811 -0.041285 0
0.805583 0.159751 0
0.821774 0.323044 0
0.858375 0.435975 0
0.902736 0.494847 0
0.943760 0.499009 0
0.979849 0.461649 0
1.007432 0.402849 0
1.022983 0.334248 0
1.029809 0.265301 0
1.031798 0.200174 0
1.028464 0.138822 0
1.012215 0.088258 0
0.981789 0.055997 0
0.938053 0.036638 0
0.902768 0.023889 0
0.879675 0.016186 0
0.867811 0.011318 0
0.864845 0.007201 0
0.868224 0.003143 0
0.876491 -0.000629 0
0.888525 -0.003879 0
0.903921 -0.007777 0
0.917207 -0.012525 0
0.928276 -0.016627 0
0.937698 -0.019424 0
0.945728 -0.020769 0
0.952706 -0.020928 0
0.959132 -0.020513 0
0.965330 -0.020050 0
0.971125 -0.019623 0
0.976088 -0.018889 0
0.979972 -0.017552 0
0.983030 -0.015810 0
0.985845 -0.014137 0
0.988884 -0.012915 0
0.992260 -0.012226 0
0.995440 -0.011813 0
0.998019 -0.011218 0
0.999857 -0.010262 0
1.001096 -0.009055 0
1.002006 -0.007810 0
1.002754 -0.006682 0
1.003367 -0.005620 0
1.003866 -0.004617 0
1.004255 -0.003663 0
1.004541 -0.002748 0
1.004728 -0.001823 0
1.004811 -0.001328 0
1.000000 -0.000349 0
0.999948 -0.001250 0
1.000093 -0.002277 0
1.000069 -0.004266 0
0.999859 -0.007562 0
1.000255 -0.010775 0
1.001098 -0.014083 0
1.002012 -0.018170 0
1.003187 -0.022826 0
1.003996 -0.028247 0
1.005058 -0.034618 0
1.005398 -0.042373 0
1.006299 -0.051671 0
1.006925 -0.062886 0
1.003573 -0.077525 0
1.004373 -0.094455 0
0.998169 -0.122934 0
0.993844 -0.153309 0
0.982226 -0.209185 0
0.972954 -0.274795 0
0.943517 -0.442746 0
1.013073 -0.879777 0
0.753576 -0.584527 0
0.000015 0.000000 0
-0.000479 0.000000 0
0.454482 -0.036323 0
0.404580 -0.063230 0
0.430454 -0.044905 0
0.430413 -0.173029 0
0.918822 -0.101368 0
1.158255 0.221739 0
1.286309 0.434508 0
1.353362 0.600438 0
1.358123 0.704503 0
1.303305 0.769323 0
1.202104 0.815263 0
1.183091 0.742287 0
1.212910 0.636242 0
0.966883 0.794132 0
0.747789 0.832570 0
0.759685 0.479083 0
0.791564 0.096504 0
0.803435 -0.202609 0
0.808412 -0.458503 0
0.777919 -0.693824 0
0.723336 -0.890305 0
0.687851 -1.001918 0
0.667899 -0.994199 0
0.662151 -0.878888 0
0.647668 -0.712599 0
0.623466 -0.523697 0
0.618897 -0.308780 0
0.637901 -0.081717 0
0.666590 0.127796 0
0.701041 0.297959 0
0.745031 0.414171 0
0.802409 0.466108 0
0.867916 0.458106 0
0.922570 0.415765 0
0.957915 0.365261 0
0.976099 0.312611 0
0.983999 0.257730 0
0.983718 0.204595 0
0.971503 0.158920 0
0.943583 0.121655 0
0.908067 0.091863 0
0.875051 0.069317 0
0.849044 0.050461 0
0.832625 0.033698 0
0.826358 0.018763 0
0.828838 0.005896 0
0.837878 -0.004542 0
0.851497 -0.012503 0
0.868077 -0.018455 0
0.886160 -0.023221 0
0.903274 -0.027011 0
0.918277 -0.029266 0
0.931018 -0.029856 0
0.941926 -0.029415 0
0.951523 -0.028709 0
0.960022 -0.028005 0
0.967264 -0.027003 0
0.973111 -0.025343 0
0.977709 -0.023088 0
0.981618 -0.020738 0
0.985595 -0.018859 0
0.989830 -0.017610 0
0.993729 -0.016814 0
0.997127 -0.015896 0
0.999592 -0.014536 0
1.001247 -0.012960 0
1.002395 -0.011397 0
1.003239 -0.009939 0
1.003959 -0.008567 0
1.004537 -0.007296 0
1.004992 -0.006111 0
1.005344 -0.005001 0
1.005608 -0.003950 0
1.005793 -0.002945 0
1.005906 -0.001933 0
1.005949 -0.001391 0
1.000000 -0.000284 0
0.999950 -0.001209 0
0.999837 -0.002465 0
0.999950 -0.004104 0
0.999757 -0.007130 0
0.999415 -0.011049 0
0.999573 -0.014807 0
0.999490 -0.019005 0
1.000093 -0.023435 0
0.999721 -0.028661 0
1.001018 -0.034554 0
0.999480 -0.042112 0
0.999231 -0.051834 0
0.995425 -0.059309 0
0.995012 -0.074429 0
0.984261 -0.090779 0
0.984544 -0.112555 0
0.956077 -0.141396 0
0.954910 -0.187523 0
0.887527 -0.239760 0
0.870062 -0.420550 0
0.627554 -0.502506 0
0.000000 0.001590 0
-0.619691 0.211913 0
-0.519081 0.000000 0
0.000000 0.000000 0
-0.041560 -0.044154 0
-0.066613 -0.045149 0
0.050094 -0.478974 0
0.150046 -0.603082 0
0.486713 -0.046889 0
0.675062 0.283381 0
0.987141 0.507552 0
1.140565 0.671442 0
1.163840 0.787727 0
1.184362 0.819079 0
1.240294 0.743201 0
1.118062 0.841562 0
0.836938 1.042482 0
0.825349 0.866649 0
0.862788 0.451065 0
0.864655 0.094043 0
0.874500 -0.214988 0
0.903090 -0.473609 0
0.921812 -0.667676 0
0.879439 -0.823411 0
0.792214 -0.941161 0
0.695938 -0.979394 0
0.655906 -0.880894 0
0.670115 -0.670601 0
0.659847 -0.459990 0
0.605302 -0.277146 0
0.560086 -0.088979 0
0.557105 0.096610 0
0.596919 0.244601 0
0.667055 0.334607 0
0.746851 0.371960 0
0.813157 0.378847 0
0.854575 0.371649 0
0.878980 0.349319 0
0.896365 0.308163 0
0.904233 0.257681 0
0.897013 0.212668 0
0.873978 0.178955 0
0.843660 0.151693 0
0.813664 0.124528 0
0.791939 0.095660 0
0.781412 0.066314 0
0.781420 0.038869 0
0.789717 0.015103 0
0.803749 -0.004321 0
0.821409 -0.019518 0
0.841162 -0.030830 0
0.861877 -0.038545 0
0.882649 -0.042975 0
0.902295 -0.044644 0
0.919878 -0.044373 0
0.934785 -0.043076 0
0.947048 -0.041277 0
0.956951 -0.039027 0
0.964897 -0.036257 0
0.971497 -0.033142 0
0.977433 -0.030070 0
0.983057 -0.027399 0
0.988132 -0.025440 0
0.992846 -0.024026 0
0.996889 -0.022275 0
0.999877 -0.020215 0
1.001890 -0.018091 0
1.003271 -0.015935 0
1.004282 -0.014025 0
1.005082 -0.012257 0
1.005688 -0.010622 0
1.006152 -0.009110 0
1.006498 -0.007718 0
1.006748 -0.006432 0
1.006924 -0.005236 0
1.007040 -0.004115 0
1.007110 -0.003049 0
1.007141 -0.001983 0
1.007141 -0.001414 0
1.000000 -0.000291 0
0.999977 -0.001078 0
0.999802 -0.002274 0
0.999746 -0.004181 0
0.999756 -0.007021 0
0.999398 -0.010587 0
0.998634 -0.014154 0
0.998247 -0.018685 0
0.997523 -0.023052 0
0.997534 -0.029167 0
0.996289 -0.034371 0
0.995430 -0.040579 0
0.993042 -0.047609 0
0.988008 -0.058660 0
0.985287 -0.066355 0
0.975313 -0.083981 0
0.963970 -0.094744 0
0.943579 -0.123668 0
0.913215 -0.140630 0
0.855776 -0.189941 0
0.789670 -0.182767 0
0.484762 -0.073694 0
0.348267 -0.020955 0
0.000000 0.000000 0
0.000000 0.000000 0
0.000000 0.000000 0
0.000000 0.000000 0
-0.042300 -0.134707 0
-0.049464 -0.389689 0
-0.385381 -0.537987 0
-0.207913 -0.303278 0
-0.145681 -0.065921 0
0.586899 0.134934 0
0.852503 0.527803 0
1.008469 0.725525 0
1.108975 0.738809 0
1.094834 0.808586 0
0.901432 1.039597 0
0.845577 1.086844 0
0.964854 0.806718 0
0.974442 0.439777 0
0.938895 0.084791 0
0.912817 -0.241045 0
0.902435 -0.505816 0
0.929894 -0.670175 0
0.969704 -0.760708 0
0.958741 -0.818418 0
0.878907 -0.857892 0
0.725368 -0.853065 0
0.624933 -0.716541 0
0.617140 -0.458886 0
0.604964 -0.209020 0
0.582578 -0.033521 0
0.582691 0.090962 0
0.610698 0.188008 0