# vtk DataFile Version 2.0
generated by CFD-lab course output (written by Tobias Neckel) 
ASCII

DATASET STRUCTURED_GRID
DIMENSIONS  101 21 1 
POINTS 2121 float

0.000000 0.000000 0
0.100000 0.000000 0
0.200000 0.000000 0
0.300000 0.000000 0
0.400000 0.000000 0
0.500000 0.000000 0
0.600000 0.000000 0
0.700000 0.000000 0
0.800000 0.000000 0
0.900000 0.000000 0
1.000000 0.000000 0
1.100000 0.000000 0
1.200000 0.000000 0
1.300000 0.000000 0
1.400000 0.000000 0
1.500000 0.000000 0
1.600000 0.000000 0
1.700000 0.000000 0
1.800000 0.000000 0
1.900000 0.000000 0
2.000000 0.000000 0
2.100000 0.000000 0
2.200000 0.000000 0
2.300000 0.000000 0
2.400000 0.000000 0
2.500000 0.000000 0
2.600000 0.000000 0
2.700000 0.000000 0
2.800000 0.000000 0
2.900000 0.000000 0
3.000000 0.000000 0
3.100000 0.000000 0
3.200000 0.000000 0
3.300000 0.000000 0
3.400000 0.000000 0
3.500000 0.000000 0
3.600000 0.000000 0
3.700000 0.000000 0
3.800000 0.000000 0
3.900000 0.000000 0
4.000000 0.000000 0
4.100000 0.000000 0
4.200000 0.000000 0
4.300000 0.000000 0
4.400000 0.000000 0
4.500000 0.000000 0
4.600000 0.000000 0
4.700000 0.000000 0
4.800000 0.000000 0
4.900000 0.000000 0
5.000000 0.000000 0
5.100000 0.000000 0
5.200000 0.000000 0
5.300000 0.000000 0
5.400000 0.000000 0
5.500000 0.000000 0
5.600000 0.000000 0
5.700000 0.000000 0
5.800000 0.000000 0
5.900000 0.000000 0
6.000000 0.000000 0
6.100000 0.000000 0
6.200000 0.000000 0
6.300000 0.000000 0
6.400000 0.000000 0
6.500000 0.000000 0
6.600000 0.000000 0
6.700000 0.000000 0
6.800000 0.000000 0
6.900000 0.000000 0
7.000000 0.000000 0
7.100000 0.000000 0
7.200000 0.000000 0
7.300000 0.000000 0
7.400000 0.000000 0
7.500000 0.000000 0
7.600000 0.000000 0
7.700000 0.000000 0
7.800000 0.000000 0
7.900000 0.000000 0
8.000000 0.000000 0
8.100000 0.000000 0
8.200000 0.000000 0
8.300000 0.000000 0
8.400000 0.000000 0
8.500000 0.000000 0
8.600000 0.000000 0
8.700000 0.000000 0
8.800000 0.000000 0
8.900000 0.000000 0
9.000000 0.000000 0
9.100000 0.000000 0
9.200000 0.000000 0
9.300000 0.000000 0
9.400000 0.000000 0
9.500000 0.000000 0
9.600000 0.000000 0
9.700000 0.000000 0
9.800000 0.000000 0
9.900000 0.000000 0
10.000000 0.000000 0
0.000000 0.100000 0
0.100000 0.100000 0
0.200000 0.100000 0
0.300000 0.100000 0
0.400000 0.100000 0
0.500000 0.100000 0
0.600000 0.100000 0
0.700000 0.100000 0
0.800000 0.100000 0
0.900000 0.100000 0
1.000000 0.100000 0
1.100000 0.100000 0
1.200000 0.100000 0
1.300000 0.100000 0
1.400000 0.100000 0
1.500000 0.100000 0
1.600000 0.100000 0
1.700000 0.100000 0
1.800000 0.100000 0
1.900000 0.100000 0
2.000000 0.100000 0
2.100000 0.100000 0
2.200000 0.100000 0
2.300000 0.100000 0
2.400000 0.100000 0
2.500000 0.100000 0
2.600000 0.100000 0
2.700000 0.100000 0
2.800000 0.100000 0
2.900000 0.100000 0
3.000000 0.100000 0
3.100000 0.100000 0
3.200000 0.100000 0
3.300000 0.100000 0
3.400000 0.100000 0
3.500000 0.100000 0
3.600000 0.100000 0
3.700000 0.100000 0
3.800000 0.100000 0
3.900000 0.100000 0
4.000000 0.100000 0
4.100000 0.100000 0
4.200000 0.100000 0
4.300000 0.100000 0
4.400000 0.100000 0
4.500000 0.100000 0
4.600000 0.100000 0
4.700000 0.100000 0
4.800000 0.100000 0
4.900000 0.100000 0
5.000000 0.100000 0
5.100000 0.100000 0
5.200000 0.100000 0
5.300000 0.100000 0
5.400000 0.100000 0
5.500000 0.100000 0
5.600000 0.100000 0
5.700000 0.100000 0
5.800000 0.100000 0
5.900000 0.100000 0
6.000000 0.100000 0
6.100000 0.100000 0
6.200000 0.100000 0
6.300000 0.100000 0
6.400000 0.100000 0
6.500000 0.100000 0
6.600000 0.100000 0
6.700000 0.100000 0
6.800000 0.100000 0
6.900000 0.100000 0
7.000000 0.100000 0
7.100000 0.100000 0
7.200000 0.100000 0
7.300000 0.100000 0
7.400000 0.100000 0
7.500000 0.100000 0
7.600000 0.100000 0
7.700000 0.100000 0
7.800000 0.100000 0
7.900000 0.100000 0
8.000000 0.100000 0
8.100000 0.100000 0
8.200000 0.100000 0
8.300000 0.100000 0
8.400000 0.100000 0
8.500000 0.100000 0
8.600000 0.100000 0
8.700000 0.100000 0
8.800000 0.100000 0
8.900000 0.100000 0
9.000000 0.100000 0
9.100000 0.100000 0
9.200000 0.100000 0
9.300000 0.100000 0
9.400000 0.100000 0
9.500000 0.100000 0
9.600000 0.100000 0
9.700000 0.100000 0
9.800000 0.100000 0
9.900000 0.100000 0
10.000000 0.100000 0
0.000000 0.200000 0
0.100000 0.200000 0
0.200000 0.200000 0
0.300000 0.200000 0
0.400000 0.200000 0
0.500000 0.200000 0
0.600000 0.200000 0
0.700000 0.200000 0
0.800000 0.200000 0
0.900000 0.200000 0
1.000000 0.200000 0
1.100000 0.200000 0
1.200000 0.200000 0
1.300000 0.200000 0
1.400000 0.200000 0
1.500000 0.200000 0
1.600000 0.200000 0
1.700000 0.200000 0
1.800000 0.200000 0
1.900000 0.200000 0
2.000000 0.200000 0
2.100000 0.200000 0
2.200000 0.200000 0
2.300000 0.200000 0
2.400000 0.200000 0
2.500000 0.200000 0
2.600000 0.200000 0
2.700000 0.200000 0
2.800000 0.200000 0
2.900000 0.200000 0
3.000000 0.200000 0
3.100000 0.200000 0
3.200000 0.200000 0
3.300000 0.200000 0
3.400000 0.200000 0
3.500000 0.200000 0
3.600000 0.200000 0
3.700000 0.200000 0
3.800000 0.200000 0
3.900000 0.200000 0
4.000000 0.200000 0
4.100000 0.200000 0
4.200000 0.200000 0
4.300000 0.200000 0
4.400000 0.200000 0
4.500000 0.200000 0
4.600000 0.200000 0
4.700000 0.200000 0
4.800000 0.200000 0
4.900000 0.200000 0
5.000000 0.200000 0
5.100000 0.200000 0
5.200000 0.200000 0
5.300000 0.200000 0
5.400000 0.200000 0
5.500000 0.200000 0
5.600000 0.200000 0
5.700000 0.200000 0
5.800000 0.200000 0
5.900000 0.200000 0
6.000000 0.200000 0
6.100000 0.200000 0
6.200000 0.200000 0
6.300000 0.200000 0
6.400000 0.200000 0
6.500000 0.200000 0
6.600000 0.200000 0
6.700000 0.200000 0
6.800000 0.200000 0
6.900000 0.200000 0
7.000000 0.200000 0
7.100000 0.200000 0
7.200000 0.200000 0
7.300000 0.200000 0
7.400000 0.200000 0
7.500000 0.200000 0
7.600000 0.200000 0
7.700000 0.200000 0
7.800000 0.200000 0
7.900000 0.200000 0
8.000000 0.200000 0
8.100000 0.200000 0
8.200000 0.200000 0
8.300000 0.200000 0
8.400000 0.200000 0
8.500000 0.200000 0
8.600000 0.200000 0
8.700000 0.200000 0
8.800000 0.200000 0
8.900000 0.200000 0
9.000000 0.200000 0
9.100000 0.200000 0
9.200000 0.200000 0
9.300000 0.200000 0
9.400000 0.200000 0
9.500000 0.200000 0
9.600000 0.200000 0
9.700000 0.200000 0
9.800000 0.200000 0
9.900000 0.200000 0
10.000000 0.200000 0
0.000000 0.300000 0
0.100000 0.300000 0
0.200000 0.300000 0
0.300000 0.300000 0
0.400000 0.300000 0
0.500000 0.300000 0
0.600000 0.300000 0
0.700000 0.300000 0
0.800000 0.300000 0
0.900000 0.300000 0
1.000000 0.300000 0
1.100000 0.300000 0
1.200000 0.300000 0
1.300000 0.300000 0
1.400000 0.300000 0
1.500000 0.300000 0
1.600000 0.300000 0
1.700000 0.300000 0
1.800000 0.300000 0
1.900000 0.300000 0
2.000000 0.300000 0
2.100000 0.300000 0
2.200000 0.300000 0
2.300000 0.300000 0
2.400000 0.300000 0
2.500000 0.300000 0
2.600000 0.300000 0
2.700000 0.300000 0
2.800000 0.300000 0
2.900000 0.300000 0
3.000000 0.300000 0
3.100000 0.300000 0
3.200000 0.300000 0
3.300000 0.300000 0
3.400000 0.300000 0
3.500000 0.300000 0
3.600000 0.300000 0
3.700000 0.300000 0
3.800000 0.300000 0
3.900000 0.300000 0
4.000000 0.300000 0
4.100000 0.300000 0
4.200000 0.300000 0
4.300000 0.300000 0
4.400000 0.300000 0
4.500000 0.300000 0
4.600000 0.300000 0
4.700000 0.300000 0
4.800000 0.300000 0
4.900000 0.300000 0
5.000000 0.300000 0
5.100000 0.300000 0
5.200000 0.300000 0
5.300000 0.300000 0
5.400000 0.300000 0
5.500000 0.300000 0
5.600000 0.300000 0
5.700000 0.300000 0
5.800000 0.300000 0
5.900000 0.300000 0
6.000000 0.300000 0
6.100000 0.300000 0
6.200000 0.300000 0
6.300000 0.300000 0
6.400000 0.300000 0
6.500000 0.300000 0
6.600000 0.300000 0
6.700000 0.300000 0
6.800000 0.300000 0
6.900000 0.300000 0
7.000000 0.300000 0
7.100000 0.300000 0
7.200000 0.300000 0
7.300000 0.300000 0
7.400000 0.300000 0
7.500000 0.300000 0
7.600000 0.300000 0
7.700000 0.300000 0
7.800000 0.300000 0
7.900000 0.300000 0
8.000000 0.300000 0
8.100000 0.300000 0
8.200000 0.300000 0
8.300000 0.300000 0
8.400000 0.300000 0
8.500000 0.300000 0
8.600000 0.300000 0
8.700000 0.300000 0
8.800000 0.300000 0
8.900000 0.300000 0
9.000000 0.300000 0
9.100000 0.300000 0
9.200000 0.300000 0
9.300000 0.300000 0
9.400000 0.300000 0
9.500000 0.300000 0
9.600000 0.300000 0
9.700000 0.300000 0
9.800000 0.300000 0
9.900000 0.300000 0
10.000000 0.300000 0
0.000000 0.400000 0
0.100000 0.400000 0
0.200000 0.400000 0
0.300000 0.400000 0
0.400000 0.400000 0
0.500000 0.400000 0
0.600000 0.400000 0
0.700000 0.400000 0
0.800000 0.400000 0
0.900000 0.400000 0
1.000000 0.400000 0
1.100000 0.400000 0
1.200000 0.400000 0
1.300000 0.400000 0
1.400000 0.400000 0
1.500000 0.400000 0
1.600000 0.400000 0
1.700000 0.400000 0
1.800000 0.400000 0
1.900000 0.400000 0
2.000000 0.400000 0
2.100000 0.400000 0
2.200000 0.400000 0
2.300000 0.400000 0
2.400000 0.400000 0
2.500000 0.400000 0
2.600000 0.400000 0
2.700000 0.400000 0
2.800000 0.400000 0
2.900000 0.400000 0
3.000000 0.400000 0
3.100000 0.400000 0
3.200000 0.400000 0
3.300000 0.400000 0
3.400000 0.400000 0
3.500000 0.400000 0
3.600000 0.400000 0
3.700000 0.400000 0
3.800000 0.400000 0
3.900000 0.400000 0
4.000000 0.400000 0
4.100000 0.400000 0
4.200000 0.400000 0
4.300000 0.400000 0
4.400000 0.400000 0
4.500000 0.400000 0
4.600000 0.400000 0
4.700000 0.400000 0
4.800000 0.400000 0
4.900000 0.400000 0
5.000000 0.400000 0
5.100000 0.400000 0
5.200000 0.400000 0
5.300000 0.400000 0
5.400000 0.400000 0
5.500000 0.400000 0
5.600000 0.400000 0
5.700000 0.400000 0
5.800000 0.400000 0
5.900000 0.400000 0
6.000000 0.400000 0
6.100000 0.400000 0
6.200000 0.400000 0
6.300000 0.400000 0
6.400000 0.400000 0
6.500000 0.400000 0
6.600000 0.400000 0
6.700000 0.400000 0
6.800000 0.400000 0
6.900000 0.400000 0
7.000000 0.400000 0
7.100000 0.400000 0
7.200000 0.400000 0
7.300000 0.400000 0
7.400000 0.400000 0
7.500000 0.400000 0
7.600000 0.400000 0
7.700000 0.400000 0
7.800000 0.400000 0
7.900000 0.400000 0
8.000000 0.400000 0
8.100000 0.400000 0
8.200000 0.400000 0
8.300000 0.400000 0
8.400000 0.400000 0
8.500000 0.400000 0
8.600000 0.400000 0
[...]
POINT_DATA 2121 

VECTORS velocity float
0.500000 0.000000 0
-0.000007 0.000000 0
-0.000021 0.000000 0
-0.000045 0.000000 0
-0.000085 0.000000 0
-0.000101 0.000000 0
-0.000125 0.000000 0
-0.000162 0.000000 0
-0.000197 0.000000 0
-0.000232 0.000000 0
-0.000266 0.000000 0
-0.000302 0.000000 0
-0.000338 0.000000 0
-0.000377 0.000000 0
-0.000419 0.000000 0
-0.000463 0.000000 0
-0.000511 0.000000 0
-0.000560 0.000000 0
-0.000605 0.000000 0
-0.000639 0.000000 0
-0.000653 0.000000 0
-0.000628 0.000000 0
-0.000538 0.000000 0
-0.000337 0.000000 0
0.000039 0.000000 0
0.000616 0.000000 0
0.001417 0.000000 0
0.002433 0.000000 0
0.003190 0.000000 0
0.004019 0.000000 0
0.004789 0.000000 0
0.005476 0.000000 0
0.006051 0.000000 0
0.006162 0.000000 0
0.007504 0.000000 0
0.007116 0.000000 0
0.004965 0.000000 0
-0.000849 0.000000 0
-0.010463 0.000000 0
-0.021211 0.000000 0
-0.030799 0.000000 0
-0.037796 0.000000 0
-0.033038 0.000000 0
-0.019091 0.000000 0
-0.002167 0.000000 0
0.011322 0.000000 0
0.018858 0.000000 0
0.021087 0.000000 0
0.020351 0.000000 0
0.019084 0.000000 0
0.017927 0.000000 0
0.012366 0.000000 0
-0.004401 0.000000 0
0.006684 0.000000 0
0.018802 0.000000 0
0.013766 0.000000 0
0.004064 0.000000 0
-0.003277 0.000000 0
-0.007786 0.000000 0
-0.009943 0.000000 0
-0.010974 0.000000 0
-0.010874 0.000000 0
-0.008941 0.000000 0
-0.008588 0.000000 0
-0.008635 0.000000 0
-0.008493 0.000000 0
-0.008037 0.000000 0
-0.007118 0.000000 0
-0.005096 0.000000 0
-0.001052 0.000000 0
0.004060 0.000000 0
0.005966 0.000000 0
0.002684 0.000000 0
-0.000950 0.000000 0
0.014520 0.000000 0
0.019268 0.000000 0
0.012874 0.000000 0
0.004109 0.000000 0
-0.000403 0.000000 0
-0.001932 0.000000 0
-0.002209 0.000000 0
-0.002275 0.000000 0
-0.002682 0.000000 0
-0.003367 0.000000 0
-0.003957 0.000000 0
-0.004211 0.000000 0
-0.004048 0.000000 0
-0.003316 0.000000 0
-0.001867 0.000000 0
-0.000050 0.000000 0
0.001653 0.000000 0
0.003044 0.000000 0
0.003189 0.000000 0
0.002759 0.000000 0
-0.001224 0.000000 0
-0.005982 0.000000 0
-0.008665 0.000000 0
-0.009764 0.000000 0
-0.010324 0.000000 0
-0.009997 0.000000 0
-0.009626 0.000000 0
1.000000 0.000320 0
1.000069 0.000639 0
1.000376 0.000481 0
1.001085 0.000002 0
1.002351 -0.000760 0
1.004301 -0.001519 0
1.007015 -0.002299 0
1.010637 -0.003322 0
1.015338 -0.004550 0
1.021322 -0.006016 0
1.028847 -0.007788 0
1.038244 -0.009956 0
1.049941 -0.012626 0
1.064482 -0.015921 0
1.082548 -0.019977 0
1.104970 -0.024916 0
1.132714 -0.030808 0
1.166824 -0.037586 0
1.208267 -0.044928 0
1.257608 -0.052101 0
1.314579 -0.057750 0
1.376882 -0.060057 0
1.441219 -0.056636 0
1.496897 -0.045678 0
1.537028 -0.029262 0
1.558570 -0.010844 0
1.561010 0.008224 0
1.545151 0.026496 0
1.512091 0.042319 0
1.464235 0.055826 0
1.403959 0.067853 0
1.331909 0.078617 0
1.249655 0.086222 0
1.159890 0.089592 0
1.065719 0.109193 0
0.967684 0.121604 0
0.848968 0.112191 0
0.713744 0.078228 0
0.641606 0.005028 0
0.601408 -0.100061 0
0.686404 -0.203196 0
0.965005 -0.274661 0
1.281970 -0.275047 0
1.538782 -0.187923 0
1.700895 -0.073139 0
1.756653 0.030204 0
1.715724 0.101135 0
1.609473 0.137093 0
1.473722 0.149194 0
1.329041 0.152801 0
1.188240 0.148927 0
1.084162 0.096478 0
1.053130 0.020293 0
0.901516 0.058649 0
0.709370 0.141723 0
0.598855 0.116312 0
0.582464 0.031968 0
0.624445 -0.038853 0
0.700711 -0.081427 0
0.796173 -0.101448 0
0.899319 -0.110458 0
0.995794 -0.104043 0
1.079817 -0.086972 0
1.155738 -0.076929 0
1.224992 -0.070055 0
1.286668 -0.062263 0
1.338957 -0.052562 0
1.379673 -0.040213 0
1.405252 -0.022114 0
1.410523 0.005395 0
1.392448 0.034649 0
1.350616 0.043235 0
1.280112 0.017050 0
1.165483 0.011585 0
1.055629 0.068463 0
1.004632 0.097742 0
1.010498 0.063177 0
1.040207 0.015614 0
1.079262 -0.017579 0
1.120022 -0.027838 0
1.153298 -0.027330 0
1.176617 -0.024311 0
1.194047 -0.023050 0
1.210653 -0.023544 0
1.227834 -0.023494 0
1.243273 -0.021387 0
1.255557 -0.016603 0
1.263383 -0.007679 0
1.262677 0.006585 0
1.241506 0.023962 0
1.192580 0.040360 0
1.128633 0.044736 0
1.105732 0.040032 0
1.078991 0.028907 0
1.054992 -0.001512 0
1.077194 -0.038480 0
1.134806 -0.059383 0
1.199422 -0.062044 0
1.258451 -0.053356 0
1.305092 -0.033401 0
1.324851 -0.019638 0
1.000000 -0.000068 0
1.000655 -0.000375 0
1.001791 -0.001016 0
1.003413 -0.001973 0
1.005519 -0.003215 0
1.008152 -0.004663 0
1.011592 -0.006335 0
1.015889 -0.008322 0
1.021173 -0.010684 0
1.027625 -0.013509 0
1.035474 -0.016923 0
1.045016 -0.021095 0
1.056637 -0.026239 0
1.070845 -0.032609 0
1.088300 -0.040492 0
1.109839 -0.050171 0
1.136513 -0.061859 0
1.169596 -0.075559 0
1.210528 -0.090792 0
1.260654 -0.106321 0
1.320897 -0.119283 0
1.389566 -0.126650 0
1.465500 -0.120026 0
1.529696 -0.095821 0
1.574317 -0.061685 0
1.597570 -0.023994 0
1.600671 0.013406 0
1.586099 0.048906 0
1.555574 0.080904 0
1.509795 0.108120 0
1.451398 0.132314 0
1.380242 0.154294 0
1.297789 0.172009 0
1.204865 0.183926 0
1.100542 0.192198 0
0.991910 0.216743 0
0.979680 0.253932 0
0.955658 0.207354 0
0.697340 0.112329 0
0.409590 -0.044804 0
0.342749 -0.363602 0
0.576619 -0.595570 0
0.965496 -0.573780 0
1.257377 -0.418928 0
1.449208 -0.217873 0
1.584917 -0.014831 0
1.638948 0.147178 0
1.605395 0.242002 0
1.510167 0.280432 0
1.391113 0.285483 0
1.282958 0.244879 0
1.191271 0.135111 0
1.004074 0.182647 0
0.729457 0.343760 0
0.585071 0.302661 0
0.599807 0.126906 0
0.692753 -0.025590 0
0.789437 -0.118248 0
0.867399 -0.171730 0
0.935516 -0.198610 0
1.004653 -0.199623 0
1.065905 -0.180501 0
1.131564 -0.159947 0
1.193747 -0.145178 0
1.250002 -0.130934 0
1.296425 -0.113969 0
1.331030 -0.093009 0
1.352958 -0.066299 0
1.360674 -0.030855 0
1.352700 0.012799 0
1.327146 0.059903 0
1.270090 0.112332 0
1.163632 0.185130 0
1.015438 0.224479 0
0.917553 0.160847 0
0.929567 0.045127 0
0.994155 -0.035580 0
1.074823 -0.068769 0
1.148197 -0.079820 0
1.208254 -0.074043 0
1.247492 -0.056602 0
1.263021 -0.040756 0
1.262547 -0.034044 0
1.257328 -0.033796 0
1.251355 -0.032630 0
1.239250 -0.027734 0
1.223614 -0.020123 0
1.209027 -0.007133 0
1.194106 0.021863 0
1.162256 0.070083 0
1.144085 0.112858 0
1.116359 0.086831 0
0.956760 0.049625 0
0.832726 0.050723 0
0.812491 0.001779 0
0.864603 -0.079833 0
0.946526 -0.122247 0
1.035843 -0.123664 0
1.107503 -0.105689 0
1.146600 -0.066419 0
1.162377 -0.038785 0
1.000000 -0.000334 0
1.000458 -0.001151 0
1.001382 -0.002276 0
1.002770 -0.003725 0
1.004641 -0.005497 0
1.007061 -0.007591 0
1.010158 -0.010035 0
1.014021 -0.012902 0
1.018756 -0.016285 0
1.024504 -0.020315 0
1.031452 -0.025178 0
1.039846 -0.031119 0
1.050015 -0.038455 0
1.062408 -0.047584 0
1.077646 -0.058971 0
1.096555 -0.073130 0
1.120273 -0.090566 0
1.150389 -0.111603 0
1.189028 -0.135988 0
1.238930 -0.162472 0
1.303248 -0.186665 0
1.381196 -0.204663 0
1.482079 -0.196769 0
1.563055 -0.154499 0
1.613125 -0.097141 0
1.636124 -0.037202 0
1.636979 0.019691 0
1.619339 0.071588 0
1.587251 0.118618 0
1.542748 0.159998 0
1.484419 0.197403 0
1.414256 0.232223 0
1.331527 0.261596 0
1.238744 0.286836 0
1.131720 0.322145 0
1.036773 0.242463 0
0.903630 0.148441 0
0.677999 0.360566 0
0.441840 0.551095 0
0.310421 0.254529 0
0.303016 -0.370227 0
0.359916 -0.897408 0
0.555322 -0.955805 0
0.892884 -0.671635 0
1.117655 -0.400680 0
1.253774 -0.159535 0
1.372177 0.080658 0
1.434011 0.265874 0
1.423251 0.363476 0
1.358139 0.380010 0
1.269272 0.348770 0
1.137871 0.375363 0
0.899772 0.482107 0
0.742599 0.477652 0
0.702995 0.271374 0
0.765835 0.008631 0
0.833008 -0.157664 0
0.845023 -0.213500 0
0.839156 -0.227507 0
0.872615 -0.238704 0
0.953035 -0.240849 0
1.046644 -0.230956 0
1.123996 -0.214815 0
1.192343 -0.195368 0
1.253856 -0.172735 0
1.297674 -0.143293 0
1.319794 -0.109097 0
1.322623 -0.069858 0
1.311123 -0.021857 0
1.287136 0.038921 0
1.246907 0.117258 0
1.184637 0.206747 0
1.123083 0.271700 0
1.107362 0.257662 0
1.109978 0.154332 0
1.111253 0.021138 0
1.115430 -0.082082 0
1.139643 -0.138431 0
1.180446 -0.151012 0
1.223728 -0.127137 0
1.260589 -0.082101 0
1.275836 -0.039369 0
1.272507 -0.017362 0
1.264426 -0.012357 0
1.261170 -0.005421 0
1.238913 0.006349 0
1.195482 0.013615 0
1.147209 0.021823 0
1.139422 0.053350 0
1.147836 0.073977 0
1.078417 0.086250 0
0.953308 0.232053 0
0.825287 0.323657 0
0.801422 0.173169 0
0.807585 -0.033397 0
0.773769 -0.172523 0
0.751009 -0.230631 0
0.777937 -0.223029 0
0.853631 -0.164121 0
0.912585 -0.088283 0
0.928188 -0.050603 0
1.000000 -0.000524 0
1.000299 -0.001755 0
1.001053 -0.003326 0
1.002211 -0.005230 0
1.003797 -0.007504 0
1.005882 -0.010178 0
1.008550 -0.013293 0
1.011867 -0.016918 0
1.015901 -0.021166 0
1.020748 -0.026203 0
1.026542 -0.032263 0
1.033461 -0.039657 0
1.041748 -0.048800 0
1.051745 -0.060240 0
1.064007 -0.074638 0
1.079247 -0.092798 0
1.098559 -0.115693 0
1.123761 -0.144314 0
1.157454 -0.179334 0
1.204971 -0.220543 0
1.271417 -0.261551 0
1.355537 -0.305483 0
1.520941 -0.301888 0
1.625100 -0.226872 0
1.674266 -0.134759 0
1.691430 -0.047852 0
1.687594 0.030187 0
1.665868 0.098631 0
1.629801 0.157492 0
1.589459 0.210948 0
1.530496 0.260803 0
1.445487 0.307182 0
1.350494 0.347517 0
1.250528 0.383731 0
1.175158 0.394166 0
1.144563 0.444831 0
0.834253 0.612705 0
0.581887 0.669142 0
0.653140 0.479906 0
0.802519 0.094019 0
0.817597 -0.413099 0
0.646738 -0.847877 0
0.498652 -1.106749 0
0.619444 -0.981262 0
0.855059 -0.578763 0
1.006453 -0.269352 0
1.098942 -0.033058 0
1.177393 0.190928 0
1.240159 0.356305 0
1.244578 0.439462 0
1.187449 0.465148 0
1.073436 0.504611 0
0.961367 0.577919 0
0.922901 0.540536 0
0.933276 0.279425 0
0.895173 -0.003107 0
0.742559 -0.104779 0
0.588443 -0.124396 0
0.506928 -0.199323 0
0.524246 -0.312490 0
0.649734 -0.373653 0
0.826325 -0.351464 0
0.978486 -0.305648 0
1.082842 -0.275039 0
1.160695 -0.236267 0
1.221929 -0.179909 0
1.256737 -0.117960 0
1.260833 -0.057629 0
1.237368 0.004630 0
1.201122 0.077014 0
1.196398 0.162401 0
1.178080 0.236154 0
1.094180 0.262403 0
1.042294 0.237581 0
1.042603 0.156953 0
1.059979 0.039673 0
1.062944 -0.063973 0
1.031597 -0.133788 0
0.989572 -0.163909 0
0.996111 -0.154189 0
1.047336 -0.108714 0
1.075897 -0.052679 0
1.051412 -0.022638 0
1.010668 -0.022463 0
0.992793 -0.007121 0
1.007879 0.037948 0
1.036725 0.071575 0
1.030271 0.048921 0
0.970231 0.021230 0
0.889343 0.131081 0
0.765245 0.307379 0
0.683148 0.339954 0
0.780550 0.201503 0
0.830810 0.068417 0
0.757341 0.029424 0
0.655812 -0.023265 0
0.603634 -0.126424 0
0.581073 -0.226294 0
0.612822 -0.240345 0
0.681015 -0.140984 0
0.696523 -0.069516 0
1.000000 -0.000630 0
1.000027 -0.002200 0
1.000707 -0.004186 0
1.001624 -0.006466 0
1.002862 -0.009166 0
1.004541 -0.012342 0
1.006725 -0.016017 0
1.009426 -0.020251 0
1.012657 -0.025164 0
1.016449 -0.030953 0
1.020884 -0.037889 0
1.026060 -0.046323 0
1.032091 -0.056737 0
1.039110 -0.069841 0
1.047655 -0.086472 0
1.058115 -0.107681 0
1.071220 -0.135079 0
1.088865 -0.170498 0
1.112257 -0.217198 0
1.153858 -0.276435 0
1.210027 -0.337231 0
1.302928 -0.454189 0
1.600745 -0.466335 0
1.689358 -0.307827 0
1.699980 -0.163475 0
1.696613 -0.050534 0
1.691520 0.045250 0
1.680050 0.129377 0
1.649199 0.195024 0
1.646119 0.259301 0
1.630210 0.341372 0
1.547527 0.412223 0
1.416899 0.456552 0
1.265755 0.462169 0
1.133106 0.428108 0
0.942590 0.583366 0
0.931773 0.711117 0
1.091371 0.541678 0
1.074065 0.330461 0
1.041369 0.090071 0
0.975794 -0.214447 0
0.814248 -0.578464 0
0.636434 -0.928511 0
0.525885 -1.028041 0
0.634988 -0.787688 0
0.811330 -0.403418 0
0.922287 -0.090282 0
0.998684 0.124658 0
1.063070 0.296292 0
1.098232 0.432720 0
1.097391 0.519912 0
1.053331 0.601445 0
1.027400 0.632643 0
1.095274 0.505743 0
1.093615 0.299101 0
0.895484 0.199348 0
0.692511 0.149067 0
0.592801 0.022130 0
0.545373 -0.163311 0
0.504014 -0.381511 0
0.536828 -0.542929 0
0.663861 -0.559710 0
0.827366 -0.471333 0
0.956603 -0.377578 0
1.043098 -0.311823 0
1.107151 -0.239337 0
1.155480 -0.148003 0
1.174925 -0.050491 0
1.166370 0.037852 0
1.149135 0.079889 0
1.054831 0.140298 0
0.967497 0.308963 0
0.935033 0.407484 0
0.959563 0.309237 0
0.945883 0.136645 0
0.900521 0.000795 0
0.884536 -0.053702 0
0.896220 -0.065062 0
0.893187 -0.115529 0
0.860289 -0.184904 0
0.830026 -0.161891 0
0.824839 -0.043449 0
0.813496 0.047863 0
0.768386 0.046256 0
0.702357 -0.002638 0
0.683147 -0.037589 0
0.723838 -0.008783 0
0.770651 0.088310 0
0.727939 0.194271 0
0.620867 0.278956 0
0.609728 0.292438 0
0.703298 0.216741 0
0.730767 0.175987 0
0.608547 0.196370 0
0.478062 0.141593 0
0.416964 -0.018824 0
0.462435 -0.155900 0
0.513189 -0.232225 0
0.501237 -0.264071 0
0.506075 -0.171992 0
0.507232 -0.081958 0
1.000000 -0.000548 0
0.999940 -0.002457 0
1.000227 -0.004920 0
1.001021 -0.007381 0
1.001947 -0.010418 0
1.003142 -0.014039 0
1.004733 -0.018174 0
1.006730 -0.022847 0
1.009099 -0.028186 0
1.011748 -0.034427 0
1.014720 -0.041871 0
1.018025 -0.050861 0
1.021652 -0.061848 0
1.025148 -0.075801 0
1.029569 -0.093641 0
1.034621 -0.116360 0
1.039962 -0.146442 0
1.048345 -0.185350 0
1.052261 -0.244326 0
1.084811 -0.318312 0
1.102267 -0.410621 0
1.243057 -0.696201 0
1.593486 -0.688319 0
1.505520 -0.326110 0
1.392616 -0.142018 0
1.350514 -0.039395 0
1.350429 0.046746 0
1.408663 0.140949 0
1.366711 0.191421 0
1.468454 0.229934 0
1.613095 0.359392 0
1.612244 0.520491 0
1.513601 0.629288 0
1.368753 0.667523 0
1.158515 0.717329 0
0.934564 0.646162 0
1.055474 0.463923 0
0.979119 0.526848 0
0.789186 0.529907 0
0.735242 0.192289 0
0.729092 -0.185978 0
0.719665 -0.508517 0
0.626047 -0.818386 0
0.522092 -0.979816 0
0.509914 -0.864208 0
0.616856 -0.556651 0
0.766986 -0.220412 0
0.882577 0.050145 0
0.941852 0.256758 0
0.983374 0.405142 0
1.023600 0.510049 0
1.077035 0.574602 0
1.156606 0.535977 0
1.122297 0.474322 0
0.974334 0.479214 0
0.842210 0.397997 0
0.836621 0.197904 0
0.899034 0.022741 0
0.934168 -0.110537 0
0.888767 -0.303947 0
0.774400 -0.533501 0
0.732765 -0.642003 0
0.774366 -0.598391 0
0.839681 -0.490773 0
0.894586 -0.386816 0
0.965878 -0.292293 0
1.048343 -0.185735 0
1.089069 -0.068521 0
1.053176 0.030418 0
0.996038 0.188550 0
0.916823 0.344037 0
0.902928 0.355950 0
0.959866 0.270336 0
0.929221 0.226729 0
0.857733 0.215992 0
0.812294 0.101018 0
0.794298 -0.059675 0
0.796079 -0.142442 0
0.801418 -0.127980 0
0.757574 -0.091031 0
0.671973 -0.073268 0
0.621838 -0.036153 0
0.636164 0.033810 0
0.665820 0.088671 0
0.665503 0.078112 0
0.628122 0.016462 0
0.580556 -0.015934 0
0.582385 0.044813 0
0.650072 0.171007 0
0.748533 0.249284 0
0.839186 0.224941 0
0.814492 0.218908 0
0.671875 0.296246 0
0.563349 0.321114 0
0.538774 0.221000 0
0.509996 -0.007645 0
0.482609 -0.222656 0
0.506935 -0.265105 0
0.524841 -0.233240 0
0.524761 -0.146987 0
0.515992 -0.072612 0
1.000000 -0.000566 0
1.000099 -0.002421 0
0.999771 -0.005263 0
1.000202 -0.008183 0
1.001070 -0.011284 0
1.001787 -0.015124 0
1.002699 -0.019601 0
1.003906 -0.024613 0
1.005447 -0.030179 0
1.006897 -0.036570 0
1.008412 -0.044163 0
1.009850 -0.053251 0
1.011442 -0.063856 0
1.010526 -0.077755 0
1.011171 -0.095942 0
1.012805 -0.118071 0
1.009406 -0.148800 0
1.005154 -0.182794 0
0.996490 -0.253662 0
0.992600 -0.326440 0
0.974139 -0.495477 0
1.078483 -0.945407 0
0.766612 -0.621838 0
-0.003073 0.000000 0
-0.004267 0.000000 0
0.514751 0.000124 0
0.508038 -0.012902 0
0.343649 0.113092 0
0.388784 0.135231 0
0.647621 0.012915 0
1.351177 0.197581 0
1.446616 0.511715 0
1.449361 0.700042 0
1.376833 0.817253 0
1.243090 0.862296 0
1.215301 0.686407 0
1.020005 0.666560 0
0.669345 0.807965 0
0.632835 0.574338 0
0.689634 0.150165 0
0.712944 -0.198870 0
0.720115 -0.475420 0
0.661112 -0.730938 0
0.534055 -0.911908 0
0.477858 -0.882452 0
0.520127 -0.660490 0
0.634641 -0.356003 0
0.765468 -0.050207 0
0.873833 0.195495 0
0.959058 0.350972 0
1.009640 0.426251 0
1.035747 0.468440 0
1.012347 0.587381 0
0.912416 0.688014 0
0.867927 0.579188 0
0.894666 0.337061 0
0.936630 0.092242 0
0.987815 -0.075418 0
1.024414 -0.153045 0
1.031583 -0.221744 0
0.939455 -0.386928 0
0.815728 -0.559677 0
0.772769 -0.578251 0
0.784570 -0.497800 0
0.766140 -0.438022 0
0.762720 -0.393095 0
0.816521 -0.271197 0
0.895907 -0.055326 0
0.947004 0.130881 0
0.938357 0.216240 0
0.960610 0.233406 0
0.948278 0.265919 0
0.877560 0.381188 0
0.790342 0.411367 0
0.818049 0.253569 0
0.876520 0.064227 0
0.861255 -0.037490 0
0.780650 -0.072186 0
0.684523 -0.077028 0
0.603293 -0.055463 0
0.528421 -0.026159 0
0.473784 -0.007645 0
0.476849 0.003876 0
0.539453 0.016912 0
0.612236 0.035056 0
0.634641 0.047353 0
0.594341 0.036947 0
0.581793 0.018787 0
0.657841 0.028116 0
0.746506 0.089835 0
0.733078 0.226473 0
0.610996 0.384044 0
0.545360 0.427122 0
0.628415 0.329464 0
0.786422 0.194937 0
0.905370 0.037332 0
0.855943 -0.152848 0
0.619654 -0.274466 0
0.504258 -0.281905 0
0.499082 -0.163151 0
0.486020 -0.063869 0
1.000000 -0.000641 0
1.000115 -0.002221 0
0.999696 -0.005019 0
0.999636 -0.008676 0
0.999946 -0.011998 0
1.000331 -0.015663 0
1.000493 -0.020289 0
1.000924 -0.025590 0
1.001980 -0.031172 0
1.002055 -0.037387 0
1.003077 -0.044820 0
1.001732 -0.053887 0
1.002361 -0.062520 0
0.997698 -0.075527 0
0.999018 -0.095916 0
0.988026 -0.114591 0
0.989259 -0.138787 0
0.962105 -0.172431 0
0.965762 -0.231768 0
0.885313 -0.295958 0
0.898550 -0.496501 0
0.612923 -0.595633 0
0.000000 0.002914 0
-0.651370 0.261048 0
-0.551728 0.000000 0
0.000000 0.000000 0
-0.008376 0.209346 0
-0.023398 0.260201 0
-0.106108 -0.112553 0
-0.045359 -0.732461 0
0.748769 -0.439604 0
1.013931 0.422306 0
1.117936 0.699070 0
1.149379 0.873793 0
1.161168 0.878860 0
1.111836 0.869246 0
0.797095 1.009878 0
0.654502 0.914018 0
0.704335 0.509619 0
0.715466 0.112180 0
0.723188 -0.216460 0
0.740423 -0.456685 0
0.721919 -0.632325 0
0.612457 -0.796561 0
0.506600 -0.850279 0
0.509313 -0.713433 0
0.592951 -0.465753 0
0.703372 -0.189045 0
0.805655 0.063168 0
0.888195 0.269335 0
0.926682 0.433361 0
0.917516 0.571896 0
0.892672 0.659308 0
0.969446 0.618741 0
1.032805 0.496964 0
1.005502 0.329294 0
1.000205 0.104754 0
0.888417 -0.065044 0
0.716270 -0.154305 0
0.641870 -0.218989 0
0.680006 -0.317647 0
0.663832 -0.475319 0
0.643376 -0.567235 0
0.725048 -0.484145 0
0.811313 -0.364968 0
0.751639 -0.342676 0
0.619992 -0.318924 0
0.590251 -0.199006 0
0.671015 -0.012035 0
0.733560 0.174943 0
0.739925 0.334114 0
0.699644 0.438997 0
0.717459 0.428269 0
0.851323 0.286238 0
0.956656 0.129811 0
0.951458 0.057810 0
0.879790 0.036193 0
0.793427 0.034286 0
0.693454 0.049373 0
0.583044 0.065067 0
0.487197 0.056236 0
0.430462 0.015413 0
0.416175 -0.031864 0
0.442753 -0.046722 0
0.508546 -0.017082 0
0.595307 0.034351 0
0.654839 0.036907 0
0.631441 -0.018693 0
0.542238 0.006287 0
0.452102 0.174040 0
0.384205 0.360443 0
0.387875 0.406618 0
0.497370 0.278819 0
0.686202 0.080043 0
0.896078 -0.055963 0
1.065973 -0.077174 0
1.098953 0.063051 0
0.978416 0.086572 0
0.757544 -0.112676 0
0.512367 -0.128758 0
0.465042 -0.045950 0
1.000000 -0.000675 0
0.999962 -0.002109 0
0.999891 -0.004779 0
0.999535 -0.008428 0
0.998983 -0.011974 0
0.999329 -0.015667 0
0.999129 -0.020189 0
0.998840 -0.026095 0
0.998472 -0.031304 0
0.999237 -0.037662 0
0.997287 -0.043835 0
0.995731 -0.052531 0
0.992414 -0.059816 0
0.992931 -0.074408 0
0.984680 -0.086265 0
0.976140 -0.108307 0
0.960583 -0.122875 0
0.947857 -0.159293 0
0.912790 -0.176865 0
0.859894 -0.259223 0
0.778181 -0.223082 0
0.472299 -0.139784 0
0.340870 -0.101844 0
0.000000 0.000000 0
0.000000 0.000000 0
0.000000 0.000000 0
0.000000 0.000000 0
0.207350 0.208827 0
0.268253 0.157191 0
0.094561 -0.841962 0
-0.008183 -0.861710 0
0.501279 0.142547 0
0.734417 0.564594 0
0.871097 0.774020 0
0.924126 0.899838 0
0.829843 1.050479 0
0.684881 1.123893 0
0.731933 0.900724 0
0.757814 0.513374 0
0.746212 0.131312 0
0.719863 -0.223827 0
0.695348 -0.474151 0
0.695817 -0.602972 0
0.683303 -0.696588 0
0.606987 -0.779307 0
0.559865 -0.746840 0
0.589595 -0.550060 0
0.682906 -0.262910 0
0.769388 0.010673 0
0.821085 0.229945 0
0.867879 0.396931 0
0.935042 0.502451 0
1.038467 0.535451 0
1.126889 0.547881 0
1.098220 0.543132 0
0.992422 0.369661 0
0.819533 0.209327 0
0.585874 0.208517 0
0.414389 0.093501 0
0.378119 -0.185482 0