# vtk DataFile Version 2.0
generated by CFD-lab course output (written by Tobias Neckel) 
ASCII

DATASET STRUCTURED_GRID
DIMENSIONS  101 21 1 
POINTS 2121 float

0.000000 0.000000 0
0.100000 0.000000 0
0.200000 0.000000 0
0.300000 0.000000 0
0.400000 0.000000 0
0.500000 0.000000 0
0.600000 0.000000 0
0.700000 0.000000 0
0.800000 0.000000 0
0.900000 0.000000 0
1.000000 0.000000 0
1.100000 0.000000 0
1.200000 0.000000 0
1.300000 0.000000 0
1.400000 0.000000 0
1.500000 0.000000 0
1.600000 0.000000 0
1.700000 0.000000 0
1.800000 0.000000 0
1.900000 0.000000 0
2.000000 0.000000 0
2.100000 0.000000 0
2.200000 0.000000 0
2.300000 0.000000 0
2.400000 0.000000 0
2.500000 0.000000 0
2.600000 0.000000 0
2.700000 0.000000 0
2.800000 0.000000 0
2.900000 0.000000 0
3.000000 0.000000 0
3.100000 0.000000 0
3.200000 0.000000 0
3.300000 0.000000 0
3.400000 0.000000 0
3.500000 0.000000 0
3.600000 0.000000 0
3.700000 0.000000 0
3.800000 0.000000 0
3.900000 0.000000 0
4.000000 0.000000 0
4.100000 0.000000 0
4.200000 0.000000 0
4.300000 0.000000 0
4.400000 0.000000 0
4.500000 0.000000 0
4.600000 0.000000 0
4.700000 0.000000 0
4.800000 0.000000 0
4.900000 0.000000 0
5.000000 0.000000 0
5.100000 0.000000 0
5.200000 0.000000 0
5.300000 0.000000 0
5.400000 0.000000 0
5.500000 0.000000 0
5.600000 0.000000 0
5.700000 0.000000 0
5.800000 0.000000 0
5.900000 0.000000 0
6.000000 0.000000 0
6.100000 0.000000 0
6.200000 0.000000 0
6.300000 0.000000 0
6.400000 0.000000 0
6.500000 0.000000 0
6.600000 0.000000 0
6.700000 0.000000 0
6.800000 0.000000 0
6.900000 0.000000 0
7.000000 0.000000 0
7.100000 0.000000 0
7.200000 0.000000 0
7.300000 0.000000 0
7.400000 0.000000 0
7.500000 0.000000 0
7.600000 0.000000 0
7.700000 0.000000 0
7.800000 0.000000 0
7.900000 0.000000 0
8.000000 0.000000 0
8.100000 0.000000 0
8.200000 0.000000 0
8.300000 0.000000 0
8.400000 0.000000 0
8.500000 0.000000 0
8.600000 0.000000 0
8.700000 0.000000 0
8.800000 0.000000 0
8.900000 0.000000 0
9.000000 0.000000 0
9.100000 0.000000 0
9.200000 0.000000 0
9.300000 0.000000 0
9.400000 0.000000 0
9.500000 0.000000 0
9.600000 0.000000 0
9.700000 0.000000 0
9.800000 0.000000 0
9.900000 0.000000 0
10.000000 0.000000 0
0.000000 0.100000 0
0.100000 0.100000 0
0.200000 0.100000 0
0.300000 0.100000 0
0.400000 0.100000 0
0.500000 0.100000 0
0.600000 0.100000 0
0.700000 0.100000 0
0.800000 0.100000 0
0.900000 0.100000 0
1.000000 0.100000 0
1.100000 0.100000 0
1.200000 0.100000 0
1.300000 0.100000 0
1.400000 0.100000 0
1.500000 0.100000 0
1.600000 0.100000 0
1.700000 0.100000 0
1.800000 0.100000 0
1.900000 0.100000 0
2.000000 0.100000 0
2.100000 0.100000 0
2.200000 0.100000 0
2.300000 0.100000 0
2.400000 0.100000 0
2.500000 0.100000 0
2.600000 0.100000 0
2.700000 0.100000 0
2.800000 0.100000 0
2.900000 0.100000 0
3.000000 0.100000 0
3.100000 0.100000 0
3.200000 0.100000 0
3.300000 0.100000 0
3.400000 0.100000 0
3.500000 0.100000 0
3.600000 0.100000 0
3.700000 0.100000 0
3.800000 0.100000 0
3.900000 0.100000 0
4.000000 0.100000 0
4.100000 0.100000 0
4.200000 0.100000 0
4.300000 0.100000 0
4.400000 0.100000 0
4.500000 0.100000 0
4.600000 0.100000 0
4.700000 0.100000 0
4.800000 0.100000 0
4.900000 0.100000 0
5.000000 0.100000 0
5.100000 0.100000 0
5.200000 0.100000 0
5.300000 0.100000 0
5.400000 0.100000 0
5.500000 0.100000 0
5.600000 0.100000 0
5.700000 0.100000 0
5.800000 0.100000 0
5.900000 0.100000 0
6.000000 0.100000 0
6.100000 0.100000 0
6.200000 0.100000 0
6.300000 0.100000 0
6.400000 0.100000 0
6.500000 0.100000 0
6.600000 0.100000 0
6.700000 0.100000 0
6.800000 0.100000 0
6.900000 0.100000 0
7.000000 0.100000 0
7.100000 0.100000 0
7.200000 0.100000 0
7.300000 0.100000 0
7.400000 0.100000 0
7.500000 0.100000 0
7.600000 0.100000 0
7.700000 0.100000 0
7.800000 0.100000 0
7.900000 0.100000 0
8.000000 0.100000 0
8.100000 0.100000 0
8.200000 0.100000 0
8.300000 0.100000 0
8.400000 0.100000 0
8.500000 0.100000 0
8.600000 0.100000 0
8.700000 0.100000 0
8.800000 0.100000 0
8.900000 0.100000 0
9.000000 0.100000 0
9.100000 0.100000 0
9.200000 0.100000 0
9.300000 0.100000 0
9.400000 0.100000 0
9.500000 0.100000 0
9.600000 0.100000 0
9.700000 0.100000 0
9.800000 0.100000 0
9.900000 0.100000 0
10.000000 0.100000 0
0.000000 0.200000 0
0.100000 0.200000 0
0.200000 0.200000 0
0.300000 0.200000 0
0.400000 0.200000 0
0.500000 0.200000 0
0.600000 0.200000 0
0.700000 0.200000 0
0.800000 0.200000 0
0.900000 0.200000 0
1.000000 0.200000 0
1.100000 0.200000 0
1.200000 0.200000 0
1.300000 0.200000 0
1.400000 0.200000 0
1.500000 0.200000 0
1.600000 0.200000 0
1.700000 0.200000 0
1.800000 0.200000 0
1.900000 0.200000 0
2.000000 0.200000 0
2.100000 0.200000 0
2.200000 0.200000 0
2.300000 0.200000 0
2.400000 0.200000 0
2.500000 0.200000 0
2.600000 0.200000 0
2.700000 0.200000 0
2.800000 0.200000 0
2.900000 0.200000 0
3.000000 0.200000 0
3.100000 0.200000 0
3.200000 0.200000 0
3.300000 0.200000 0
3.400000 0.200000 0
3.500000 0.200000 0
3.600000 0.200000 0
3.700000 0.200000 0
3.800000 0.200000 0
3.900000 0.200000 0
4.000000 0.200000 0
4.100000 0.200000 0
4.200000 0.200000 0
4.300000 0.200000 0
4.400000 0.200000 0
4.500000 0.200000 0
4.600000 0.200000 0
4.700000 0.200000 0
4.800000 0.200000 0
4.900000 0.200000 0
5.000000 0.200000 0
5.100000 0.200000 0
5.200000 0.200000 0
5.300000 0.200000 0
5.400000 0.200000 0
5.500000 0.200000 0
5.600000 0.200000 0
5.700000 0.200000 0
5.800000 0.200000 0
5.900000 0.200000 0
6.000000 0.200000 0
6.100000 0.200000 0
6.200000 0.200000 0
6.300000 0.200000 0
6.400000 0.200000 0
6.500000 0.200000 0
6.600000 0.200000 0
6.700000 0.200000 0
6.800000 0.200000 0
6.900000 0.200000 0
7.000000 0.200000 0
7.100000 0.200000 0
7.200000 0.200000 0
7.300000 0.200000 0
7.400000 0.200000 0
7.500000 0.200000 0
7.600000 0.200000 0
7.700000 0.200000 0
7.800000 0.200000 0
7.900000 0.200000 0
8.000000 0.200000 0
8.100000 0.200000 0
8.200000 0.200000 0
8.300000 0.200000 0
8.400000 0.200000 0
8.500000 0.200000 0
8.600000 0.200000 0
8.700000 0.200000 0
8.800000 0.200000 0
8.900000 0.200000 0
9.000000 0.200000 0
9.100000 0.200000 0
9.200000 0.200000 0
9.300000 0.200000 0
9.400000 0.200000 0
9.500000 0.200000 0
9.600000 0.200000 0
9.700000 0.200000 0
9.800000 0.200000 0
9.900000 0.200000 0
10.000000 0.200000 0
0.000000 0.300000 0
0.100000 0.300000 0
0.200000 0.300000 0
0.300000 0.300000 0
0.400000 0.300000 0
0.500000 0.300000 0
0.600000 0.300000 0
0.700000 0.300000 0
0.800000 0.300000 0
0.900000 0.300000 0
1.000000 0.300000 0
1.100000 0.300000 0
1.200000 0.300000 0
1.300000 0.300000 0
1.400000 0.300000 0
1.500000 0.300000 0
1.600000 0.300000 0
1.700000 0.300000 0
1.800000 0.300000 0
1.900000 0.300000 0
2.000000 0.300000 0
2.100000 0.300000 0
2.200000 0.300000 0
2.300000 0.300000 0
2.400000 0.300000 0
2.500000 0.300000 0
2.600000 0.300000 0
2.700000 0.300000 0
2.800000 0.300000 0
2.900000 0.300000 0
3.000000 0.300000 0
3.100000 0.300000 0
3.200000 0.300000 0
3.300000 0.300000 0
3.400000 0.300000 0
3.500000 0.300000 0
3.600000 0.300000 0
3.700000 0.300000 0
3.800000 0.300000 0
3.900000 0.300000 0
4.000000 0.300000 0
4.100000 0.300000 0
4.200000 0.300000 0
4.300000 0.300000 0
4.400000 0.300000 0
4.500000 0.300000 0
4.600000 0.300000 0
4.700000 0.300000 0
4.800000 0.300000 0
4.900000 0.300000 0
5.000000 0.300000 0
5.100000 0.300000 0
5.200000 0.300000 0
5.300000 0.300000 0
5.400000 0.300000 0
5.500000 0.300000 0
5.600000 0.300000 0
5.700000 0.300000 0
5.800000 0.300000 0
5.900000 0.300000 0
6.000000 0.300000 0
6.100000 0.300000 0
6.200000 0.300000 0
6.300000 0.300000 0
6.400000 0.300000 0
6.500000 0.300000 0
6.600000 0.300000 0
6.700000 0.300000 0
6.800000 0.300000 0
6.900000 0.300000 0
7.000000 0.300000 0
7.100000 0.300000 0
7.200000 0.300000 0
7.300000 0.300000 0
7.400000 0.300000 0
7.500000 0.300000 0
7.600000 0.300000 0
7.700000 0.300000 0
7.800000 0.300000 0
7.900000 0.300000 0
8.000000 0.300000 0
8.100000 0.300000 0
8.200000 0.300000 0
8.300000 0.300000 0
8.400000 0.300000 0
8.500000 0.300000 0
8.600000 0.300000 0
8.700000 0.300000 0
8.800000 0.300000 0
8.900000 0.300000 0
9.000000 0.300000 0
9.100000 0.300000 0
9.200000 0.300000 0
9.300000 0.300000 0
9.400000 0.300000 0
9.500000 0.300000 0
9.600000 0.300000 0
9.700000 0.300000 0
9.800000 0.300000 0
9.900000 0.300000 0
10.000000 0.300000 0
0.000000 0.400000 0
0.100000 0.400000 0
0.200000 0.400000 0
0.300000 0.400000 0
0.400000 0.400000 0
0.500000 0.400000 0
0.600000 0.400000 0
0.700000 0.400000 0
0.800000 0.400000 0
0.900000 0.400000 0
1.000000 0.400000 0
1.100000 0.400000 0
1.200000 0.400000 0
1.300000 0.400000 0
1.400000 0.400000 0
1.500000 0.400000 0
1.600000 0.400000 0
1.700000 0.400000 0
1.800000 0.400000 0
1.900000 0.400000 0
2.000000 0.400000 0
2.100000 0.400000 0
2.200000 0.400000 0
2.300000 0.400000 0
2.400000 0.400000 0
2.500000 0.400000 0
2.600000 0.400000 0
2.700000 0.400000 0
2.800000 0.400000 0
2.900000 0.400000 0
3.000000 0.400000 0
3.100000 0.400000 0
3.200000 0.400000 0
3.300000 0.400000 0
3.400000 0.400000 0
3.500000 0.400000 0
3.600000 0.400000 0
3.700000 0.400000 0
3.800000 0.400000 0
3.900000 0.400000 0
4.000000 0.400000 0
4.100000 0.400000 0
4.200000 0.400000 0
4.300000 0.400000 0
4.400000 0.400000 0
4.500000 0.400000 0
4.600000 0.400000 0
4.700000 0.400000 0
4.800000 0.400000 0
4.900000 0.400000 0
5.000000 0.400000 0
5.100000 0.400000 0
5.200000 0.400000 0
5.300000 0.400000 0
5.400000 0.400000 0
5.500000 0.400000 0
5.600000 0.400000 0
5.700000 0.400000 0
5.800000 0.400000 0
5.900000 0.400000 0
6.000000 0.400000 0
6.100000 0.400000 0
6.200000 0.400000 0
6.300000 0.400000 0
6.400000 0.400000 0
6.500000 0.400000 0
6.600000 0.400000 0
6.700000 0.400000 0
6.800000 0.400000 0
6.900000 0.400000 0
7.000000 0.400000 0
7.100000 0.400000 0
7.200000 0.400000 0
7.300000 0.400000 0
7.400000 0.400000 0
7.500000 0.400000 0
7.600000 0.400000 0
7.700000 0.400000 0
7.800000 0.400000 0
7.900000 0.400000 0
8.000000 0.400000 0
8.100000 0.400000 0
8.200000 0.400000 0
8.300000 0.400000 0
8.400000 0.400000 0
8.500000 0.400000 0
8.600000 0.400000 0
[...]
POINT_DATA 2121 

VECTORS velocity float
0.500000 0.000000 0
0.000001 0.000000 0
0.000003 0.000000 0
0.000010 0.000000 0
0.000021 0.000000 0
0.000029 0.000000 0
0.000037 0.000000 0
0.000043 0.000000 0
0.000030 0.000000 0
0.000010 0.000000 0
0.000000 0.000000 0
-0.000009 0.000000 0
-0.000027 0.000000 0
-0.000051 0.000000 0
-0.000077 0.000000 0
-0.000110 0.000000 0
-0.000151 0.000000 0
-0.000203 0.000000 0
-0.000268 0.000000 0
-0.000353 0.000000 0
-0.000465 0.000000 0
-0.000623 0.000000 0
-0.000853 0.000000 0
-0.001165 0.000000 0
-0.001558 0.000000 0
-0.001985 0.000000 0
-0.002583 0.000000 0
-0.003132 0.000000 0
-0.003653 0.000000 0
-0.004212 0.000000 0
-0.004691 0.000000 0
-0.004712 0.000000 0
-0.003417 0.000000 0
-0.001041 0.000000 0
0.001780 0.000000 0
0.004455 0.000000 0
0.006793 0.000000 0
0.008525 0.000000 0
0.009022 0.000000 0
0.014315 0.000000 0
0.016813 0.000000 0
-0.020921 0.000000 0
0.006265 0.000000 0
0.059778 0.000000 0
0.043887 0.000000 0
0.015723 0.000000 0
-0.006782 0.000000 0
-0.025887 0.000000 0
-0.036404 0.000000 0
-0.030892 0.000000 0
-0.023212 0.000000 0
-0.024679 0.000000 0
-0.023434 0.000000 0
-0.021252 0.000000 0
-0.016802 0.000000 0
-0.006495 0.000000 0
0.008908 0.000000 0
0.022247 0.000000 0
0.030155 0.000000 0
0.034535 0.000000 0
0.038374 0.000000 0
0.012035 0.000000 0
-0.001594 0.000000 0
-0.000122 0.000000 0
-0.002277 0.000000 0
-0.004809 0.000000 0
-0.006618 0.000000 0
-0.007531 0.000000 0
-0.007388 0.000000 0
-0.006891 0.000000 0
-0.006414 0.000000 0
-0.005804 0.000000 0
-0.004741 0.000000 0
-0.003396 0.000000 0
-0.002011 0.000000 0
-0.000852 0.000000 0
-0.000156 0.000000 0
0.000109 0.000000 0
0.000322 0.000000 0
0.000651 0.000000 0
0.000421 0.000000 0
-0.000987 0.000000 0
-0.002557 0.000000 0
-0.002470 0.000000 0
-0.000404 0.000000 0
0.002265 0.000000 0
0.004050 0.000000 0
0.004434 0.000000 0
0.003893 0.000000 0
0.003327 0.000000 0
0.003220 0.000000 0
0.003517 0.000000 0
0.003860 0.000000 0
0.003951 0.000000 0
0.003756 0.000000 0
0.003498 0.000000 0
0.003395 0.000000 0
0.003050 0.000000 0
0.000865 0.000000 0
0.001291 0.000000 0
0.001631 0.000000 0
1.000000 0.000336 0
0.999989 0.000777 0
1.000019 0.000845 0
1.000189 0.000728 0
1.000569 0.000518 0
1.001238 0.000203 0
1.002294 -0.000222 0
1.003874 -0.000858 0
1.006177 -0.002041 0
1.009468 -0.003326 0
1.013904 -0.004544 0
1.019793 -0.006219 0
1.027542 -0.008406 0
1.037659 -0.011187 0
1.050774 -0.014669 0
1.067649 -0.018977 0
1.089183 -0.024190 0
1.116359 -0.030270 0
1.150115 -0.036948 0
1.191067 -0.043585 0
1.239057 -0.049020 0
1.292337 -0.051649 0
1.347450 -0.049557 0
1.397262 -0.042106 0
1.436230 -0.030874 0
1.461474 -0.018313 0
1.472731 -0.006665 0
1.472565 0.002233 0
1.464987 0.006586 0
1.455414 0.004858 0
1.451542 -0.002860 0
1.460608 -0.012095 0
1.481600 -0.013381 0
1.501062 -0.002677 0
1.502889 0.016981 0
1.477634 0.040742 0
1.427169 0.064167 0
1.355717 0.080540 0
1.269786 0.092468 0
1.170226 0.149641 0
1.072454 0.071888 0
0.985057 -0.162392 0
0.786841 -0.024431 0
0.506453 0.372633 0
0.249600 0.431782 0
0.103677 0.209298 0
0.093409 -0.028078 0
0.192661 -0.214114 0
0.402939 -0.302790 0
0.711376 -0.270873 0
0.989612 -0.215996 0
1.189563 -0.196030 0
1.361546 -0.173778 0
1.500971 -0.144027 0
1.607645 -0.102656 0
1.673564 -0.032881 0
1.674209 0.062351 0
1.594502 0.150199 0
1.438555 0.211072 0
1.240099 0.265658 0
1.066502 0.262881 0
0.964790 0.143127 0
0.831667 0.031820 0
0.740394 -0.003652 0
0.724732 -0.031028 0
0.761177 -0.059911 0
0.831150 -0.078944 0
0.914830 -0.085497 0
0.991011 -0.078920 0
1.057501 -0.069874 0
1.125978 -0.064328 0
1.190756 -0.057315 0
1.247881 -0.047318 0
1.293214 -0.034828 0
1.324171 -0.021449 0
1.339775 -0.009179 0
1.341432 0.000101 0
1.333114 0.006036 0
1.319850 0.010082 0
1.305423 0.012372 0
1.290195 0.009395 0
1.271204 -0.000730 0
1.246601 -0.011658 0
1.220776 -0.013813 0
1.201886 -0.005306 0
1.194536 0.006891 0
1.197874 0.014784 0
1.209263 0.015373 0
1.226618 0.011332 0
1.246059 0.007939 0
1.260683 0.008764 0
1.263606 0.013601 0
1.251885 0.019696 0
1.228147 0.024390 0
1.198102 0.026697 0
1.166581 0.027054 0
1.132049 0.025477 0
1.090909 0.016729 0
1.071021 0.000983 0
1.084922 -0.002408 0
1.080993 0.002920 0
1.000000 0.000032 0
1.000526 0.000012 0
1.001355 -0.000182 0
1.002413 -0.000532 0
1.003730 -0.001031 0
1.005350 -0.001708 0
1.007350 -0.002620 0
1.009858 -0.003867 0
1.012961 -0.005580 0
1.016576 -0.007713 0
1.021327 -0.010311 0
1.027438 -0.013624 0
1.035240 -0.017854 0
1.045179 -0.023221 0
1.057846 -0.029979 0
1.074003 -0.038399 0
1.094600 -0.048700 0
1.120813 -0.060924 0
1.153990 -0.074701 0
1.195437 -0.088935 0
1.246110 -0.101265 0
1.304684 -0.108389 0
1.369782 -0.104921 0
1.428146 -0.088777 0
1.469874 -0.064211 0
1.494354 -0.036500 0
1.503204 -0.011091 0
1.498395 0.007743 0
1.483442 0.017150 0
1.464381 0.013444 0
1.452175 -0.005196 0
1.461354 -0.030061 0
1.496425 -0.040457 0
1.538919 -0.021292 0
1.559261 0.023424 0
1.543636 0.075716 0
1.494434 0.121913 0
1.423448 0.157378 0
1.330237 0.185486 0
1.222780 0.197326 0
1.165644 0.185164 0
0.931866 0.285609 0
0.460672 0.478599 0
0.271763 0.537235 0
0.346848 0.402771 0
0.448924 0.156186 0
0.541277 -0.088988 0
0.550733 -0.309534 0
0.490754 -0.518719 0
0.581365 -0.586678 0
0.843375 -0.478191 0
1.058620 -0.371938 0
1.199323 -0.311411 0
1.300031 -0.246102 0
1.364237 -0.172597 0
1.406731 -0.066567 0
1.411152 0.079060 0
1.367763 0.235651 0
1.295524 0.354400 0
1.247778 0.372051 0
1.182360 0.275306 0
1.008308 0.234831 0
0.857355 0.224393 0
0.814164 0.106932 0
0.761654 -0.020787 0
0.713218 -0.106421 0
0.725820 -0.153656 0
0.798647 -0.159865 0
0.905111 -0.142676 0
1.009323 -0.134971 0
1.088866 -0.133259 0
1.161606 -0.121909 0
1.228817 -0.102463 0
1.284876 -0.076295 0
1.327130 -0.046567 0
1.351744 -0.017266 0
1.355999 0.006656 0
1.343329 0.021577 0
1.321606 0.027686 0
1.295369 0.029649 0
1.262358 0.034213 0
1.218520 0.043589 0
1.165255 0.050423 0
1.115631 0.044710 0
1.088300 0.026236 0
1.091558 0.004007 0
1.119082 -0.014732 0
1.159873 -0.028749 0
1.208125 -0.036800 0
1.258686 -0.034068 0
1.302577 -0.017551 0
1.329910 0.008794 0
1.333422 0.035455 0
1.314198 0.053780 0
1.276217 0.061563 0
1.220107 0.066050 0
1.151766 0.075670 0
1.091696 0.061024 0
1.022461 0.005983 0
0.940090 -0.009975 0
0.920550 0.008409 0
1.000000 -0.000175 0
1.000377 -0.000560 0
1.001032 -0.001036 0
1.001928 -0.001640 0
1.003065 -0.002411 0
1.004467 -0.003411 0
1.006188 -0.004723 0
1.008308 -0.006463 0
1.010917 -0.008754 0
1.014121 -0.011687 0
1.018206 -0.015401 0
1.023418 -0.020128 0
1.030049 -0.026142 0
1.038478 -0.033788 0
1.049227 -0.043490 0
1.063049 -0.055728 0
1.080929 -0.070997 0
1.104319 -0.089657 0
1.135197 -0.111570 0
1.175999 -0.135703 0
1.230035 -0.158265 0
1.296122 -0.175320 0
1.385392 -0.173018 0
1.456787 -0.142198 0
1.501145 -0.097082 0
1.522874 -0.051643 0
1.527722 -0.010706 0
1.515965 0.021994 0
1.486467 0.040599 0
1.445746 0.036124 0
1.410816 0.000167 0
1.415180 -0.056347 0
1.474194 -0.090947 0
1.560749 -0.065514 0
1.613195 0.012262 0
1.607562 0.105567 0
1.552587 0.184354 0
1.472577 0.244735 0
1.377813 0.293133 0
1.275228 0.314232 0
1.156950 0.362800 0
0.973797 0.542578 0
0.828681 0.635669 0
0.823932 0.486455 0
0.884395 0.254619 0
0.928114 0.014867 0
0.974742 -0.129889 0
1.009447 -0.163592 0
0.949433 -0.333424 0
0.784888 -0.623496 0
0.745642 -0.693252 0
0.894394 -0.551980 0
1.045067 -0.415191 0
1.121356 -0.308942 0
1.151514 -0.209358 0
1.190298 -0.079797 0
1.194452 0.101318 0
1.169678 0.265826 0
1.123736 0.331056 0
1.063582 0.378820 0
1.004053 0.502350 0
0.928782 0.468131 0
0.907441 0.225962 0
0.775510 0.092047 0
0.622829 0.069917 0
0.549024 -0.024078 0
0.547928 -0.164375 0
0.595567 -0.264791 0
0.699864 -0.289598 0
0.847546 -0.253631 0
0.982131 -0.216613 0
1.073344 -0.197269 0
1.141954 -0.170591 0
1.201009 -0.133142 0
1.251527 -0.088319 0
1.288683 -0.038052 0
1.303626 0.008514 0
1.294263 0.040427 0
1.264334 0.058038 0
1.220780 0.071618 0
1.173254 0.086242 0
1.135212 0.096370 0
1.112594 0.091227 0
1.105794 0.063138 0
1.117174 0.018765 0
1.143603 -0.023893 0
1.173117 -0.053534 0
1.194846 -0.073673 0
1.216130 -0.087483 0
1.247059 -0.086515 0
1.284640 -0.062463 0
1.320485 -0.017247 0
1.340016 0.035405 0
1.340469 0.081593 0
1.311715 0.120786 0
1.251203 0.151503 0
1.190623 0.153885 0
1.145822 0.146031 0
1.064312 0.152587 0
0.962979 0.099501 0
0.939595 0.039946 0
1.000000 -0.000329 0
1.000285 -0.001001 0
1.000795 -0.001726 0
1.001515 -0.002559 0
1.002437 -0.003564 0
1.003569 -0.004825 0
1.004936 -0.006454 0
1.006595 -0.008590 0
1.008638 -0.011387 0
1.011185 -0.014996 0
1.014411 -0.019603 0
1.018495 -0.025462 0
1.023644 -0.032910 0
1.030129 -0.042395 0
1.038307 -0.054546 0
1.048929 -0.070097 0
1.062785 -0.089967 0
1.081568 -0.115190 0
1.107849 -0.146378 0
1.145478 -0.183771 0
1.201089 -0.221387 0
1.274980 -0.263745 0
1.420223 -0.265585 0
1.509150 -0.204530 0
1.550040 -0.130297 0
1.562454 -0.063076 0
1.560639 -0.004182 0
1.545721 0.048996 0
1.497041 0.087368 0
1.420550 0.089094 0
1.331872 0.025369 0
1.315538 -0.093440 0
1.396830 -0.186027 0
1.559833 -0.160295 0
1.677459 -0.023391 0
1.702837 0.136322 0
1.639779 0.256896 0
1.526653 0.332150 0
1.412270 0.382834 0
1.316182 0.418187 0
1.207436 0.486592 0
1.102200 0.613876 0
1.104201 0.628462 0
1.109005 0.481519 0
1.018484 0.298587 0
0.923168 0.065837 0
0.818107 -0.170323 0
0.784702 -0.284227 0
0.848164 -0.294162 0
0.819798 -0.382889 0
0.708776 -0.587699 0
0.715010 -0.671365 0
0.829620 -0.538375 0
0.946389 -0.352550 0
1.005489 -0.241539 0
1.002143 -0.109506 0
0.974804 0.099678 0
0.959705 0.306365 0
0.928136 0.460494 0
0.845517 0.491732 0
0.859540 0.410105 0
0.948235 0.331442 0
0.859349 0.377664 0
0.649809 0.391543 0
0.575759 0.205697 0
0.634161 -0.031523 0
0.706307 -0.200201 0
0.717735 -0.311803 0
0.685664 -0.394657 0
0.716995 -0.417241 0
0.837110 -0.359060 0
0.969031 -0.281734 0
1.051020 -0.230130 0
1.099175 -0.185870 0
1.146929 -0.134244 0
1.186443 -0.069368 0
1.194629 0.001072 0
1.181363 0.060865 0
1.167901 0.101167 0
1.148590 0.120726 0
1.112112 0.119778 0
1.090650 0.104246 0
1.088835 0.079837 0
1.077390 0.040126 0
1.077117 -0.011576 0
1.099921 -0.051938 0
1.124523 -0.065978 0
1.130181 -0.071765 0
1.091930 -0.089016 0
1.045598 -0.102581 0
1.052627 -0.090980 0
1.096313 -0.046584 0
1.136390 0.015468 0
1.170426 0.082078 0
1.209862 0.150826 0
1.220070 0.187139 0
1.189587 0.181048 0
1.128271 0.187332 0
1.060214 0.188823 0
1.006295 0.114740 0
0.983995 0.052136 0
1.000000 -0.000445 0
1.000211 -0.001337 0
1.000589 -0.002260 0
1.001129 -0.003275 0
1.001821 -0.004458 0
1.002656 -0.005903 0
1.003621 -0.007743 0
1.004740 -0.010159 0
1.006117 -0.013338 0
1.007857 -0.017455 0
1.010069 -0.022706 0
1.012840 -0.029356 0
1.016258 -0.037772 0
1.020460 -0.048446 0
1.025325 -0.062286 0
1.031958 -0.080202 0
1.040094 -0.103632 0
1.051940 -0.134719 0
1.069468 -0.175477 0
1.098746 -0.228941 0
1.145768 -0.287766 0
1.231049 -0.394453 0
1.489881 -0.407187 0
1.568191 -0.272014 0
1.573081 -0.150385 0
1.554870 -0.062242 0
1.538166 0.006026 0
1.530747 0.085591 0
1.510639 0.165769 0
1.361201 0.201292 0
1.086409 0.105177 0
1.006155 -0.121306 0
1.115173 -0.335244 0
1.359164 -0.346145 0
1.581542 -0.130744 0
1.698246 0.143245 0
1.702358 0.360536 0
1.614719 0.472243 0
1.477644 0.503602 0
1.331432 0.519064 0
1.201014 0.576780 0
1.124542 0.645810 0
1.129803 0.628862 0
1.105018 0.572170 0
1.023893 0.440454 0
0.890440 0.215243 0
0.723565 0.008576 0
0.589955 -0.193652 0
0.567502 -0.368522 0
0.653136 -0.484109 0
0.705798 -0.588466 0
0.684857 -0.672825 0
0.688464 -0.646570 0
0.760672 -0.484813 0
0.838871 -0.265113 0
0.859328 -0.049113 0
0.888444 0.143754 0
0.927761 0.312493 0
0.956266 0.445243 0
0.948655 0.447415 0
0.869819 0.399630 0
0.719496 0.468321 0
0.580612 0.524386 0
0.636175 0.375635 0
0.776780 0.085562 0
0.885652 -0.154628 0
0.942890 -0.247950 0
0.960940 -0.244150 0
0.908768 -0.288861 0
0.781854 -0.405079 0
0.721467 -0.468651 0
0.806157 -0.411182 0
0.929979 -0.300738 0
1.002629 -0.229054 0
1.053451 -0.175590 0
1.108314 -0.085755 0
1.130159 0.013590 0
1.106142 0.067151 0
1.064599 0.090808 0
1.023010 0.127403 0
0.981215 0.144177 0
0.945626 0.119644 0
0.932586 0.104484 0
0.946175 0.074853 0
0.978075 -0.003770 0
1.011924 -0.071302 0
1.039338 -0.083798 0
1.043097 -0.041084 0
0.988271 -0.002904 0
0.904103 -0.047216 0
0.860859 -0.113181 0
0.880966 -0.101013 0
0.922532 -0.038711 0
0.927170 0.008118 0
0.882718 0.071139 0
0.835734 0.171774 0
0.804795 0.245681 0
0.762235 0.275400 0
0.732596 0.274559 0
0.712693 0.175717 0
0.694398 0.084252 0
1.000000 -0.000526 0
1.000135 -0.001572 0
1.000376 -0.002637 0
1.000734 -0.003784 0
1.001206 -0.005084 0
1.001762 -0.006618 0
1.002318 -0.008532 0
1.002827 -0.011080 0
1.003471 -0.014498 0
1.004338 -0.018943 0
1.005467 -0.024581 0
1.006853 -0.031646 0
1.008421 -0.040525 0
1.010429 -0.051458 0
1.010970 -0.066040 0
1.013747 -0.084862 0
1.014381 -0.109946 0
1.020735 -0.144561 0
1.018228 -0.193181 0
1.039066 -0.260068 0
1.049088 -0.353688 0
1.163899 -0.607856 0
1.500794 -0.602727 0
1.422723 -0.287729 0
1.321534 -0.116976 0
1.276189 -0.028162 0
1.207551 0.019940 0
1.214069 0.076522 0
1.280517 0.256913 0
1.288110 0.513323 0
1.036433 0.380414 0
0.540306 -0.122204 0
0.462483 -0.539038 0
0.670521 -0.626666 0
1.162496 -0.362474 0
1.365220 0.015505 0
1.460479 0.340421 0
1.513687 0.556862 0
1.483949 0.666119 0
1.393606 0.694815 0
1.274022 0.693480 0
1.174595 0.685086 0
1.140118 0.647984 0
1.126745 0.587427 0
1.084208 0.513164 0
0.969045 0.366163 0
0.903901 0.130160 0
0.885751 -0.128165 0
0.839799 -0.357344 0
0.777586 -0.521185 0
0.740572 -0.619422 0
0.711374 -0.654033 0
0.689079 -0.614191 0
0.693273 -0.502958 0
0.733836 -0.340196 0
0.795753 -0.159079 0
0.878577 0.031243 0
0.929925 0.238542 0
0.921247 0.439598 0
0.865383 0.578177 0
0.734928 0.639263 0
0.624913 0.620647 0
0.641554 0.460982 0
0.794245 0.195372 0
0.898332 -0.043782 0
0.855759 -0.197634 0
0.725036 -0.275492 0
0.700158 -0.277684 0
0.791182 -0.215574 0
0.821903 -0.229942 0
0.727869 -0.383365 0
0.661094 -0.490249 0
0.745286 -0.426606 0
0.871626 -0.309346 0
0.912074 -0.239932 0
0.887351 -0.146079 0
0.865439 0.003241 0
0.870827 0.126422 0
0.888083 0.184295 0
0.889972 0.204106 0
0.869453 0.197158 0
0.817002 0.152871 0
0.768458 0.079284 0
0.775126 -0.005366 0
0.809194 -0.077328 0
0.836083 -0.113205 0
0.855892 -0.097155 0
0.862322 -0.020702 0
0.867657 0.049974 0
0.868288 0.024827 0
0.832410 -0.067847 0
0.783329 -0.108261 0
0.726121 -0.030740 0
0.622104 0.121888 0
0.489301 0.242258 0
0.439826 0.265058 0
0.480967 0.254543 0
0.518366 0.259528 0
0.526743 0.238361 0
0.521143 0.152934 0
0.519498 0.089105 0
1.000000 -0.000565 0
1.000071 -0.001695 0
1.000216 -0.002852 0
1.000390 -0.004099 0
1.000622 -0.005480 0
1.000947 -0.007008 0
1.001197 -0.008802 0
1.001118 -0.011306 0
1.000987 -0.014844 0
1.001236 -0.019445 0
1.000744 -0.025216 0
1.000829 -0.032305 0
1.000914 -0.041344 0
1.000383 -0.050992 0
0.998357 -0.065599 0
0.996449 -0.083610 0
0.992915 -0.110616 0
0.989638 -0.138562 0
0.973629 -0.193805 0
0.977559 -0.259798 0
0.928208 -0.412597 0
1.039269 -0.846157 0
0.732558 -0.573256 0
0.001507 0.000000 0
0.002861 0.000000 0
0.512673 0.055592 0
0.509430 0.068145 0
0.394353 0.012624 0
0.681480 0.091726 0
0.787267 0.445375 0
0.464901 0.852980 0
0.104450 0.452643 0
-0.110814 -0.465460 0
-0.048349 -1.046160 0
0.308667 -0.825445 0
0.800897 -0.154740 0
1.060046 0.212067 0
1.199745 0.448771 0
1.274905 0.623682 0
1.297540 0.728990 0
1.242510 0.795788 0
1.199877 0.779713 0
1.208935 0.676710 0
1.141755 0.628078 0
1.005216 0.598153 0
0.965519 0.395548 0
0.934573 0.091868 0
0.874811 -0.129551 0
0.825567 -0.260358 0
0.793061 -0.384884 0
0.762684 -0.522255 0
0.721998 -0.621333 0
0.692766 -0.628471 0
0.694199 -0.529571 0
0.723640 -0.367595 0
0.745754 -0.193856 0
0.734304 0.009581 0
0.701289 0.269821 0
0.679318 0.509784 0
0.699683 0.633733 0
0.759242 0.640098 0
0.847236 0.561693 0
0.926420 0.355053 0
0.889383 0.118855 0
0.798933 0.024045 0
0.656596 0.018665 0
0.490708 -0.092352 0
0.383016 -0.310299 0
0.424674 -0.410608 0
0.631119 -0.341769 0
0.780275 -0.307845 0
0.721145 -0.428602 0
0.619884 -0.511274 0
0.646713 -0.395845 0
0.711120 -0.191319 0
0.740087 -0.039124 0
0.779231 0.030111 0
0.823389 0.044503 0
0.832977 0.071659 0
0.813204 0.146029 0
0.795212 0.217144 0
0.797554 0.220635 0
0.818160 0.146356 0
0.820965 0.034113 0
0.778662 -0.064731 0
0.717140 -0.118004 0
0.681152 -0.110040 0
0.696367 -0.052853 0
0.741671 -0.008875 0
0.739525 -0.011973 0
0.682177 -0.028227 0
0.623181 0.005272 0
0.577193 0.122509 0
0.563518 0.244933 0
0.615295 0.253413 0
0.672533 0.180104 0
0.643860 0.167137 0
0.575025 0.229621 0
0.549783 0.271778 0
0.567448 0.182957 0
0.579196 0.087237 0
1.000000 -0.000583 0
1.000005 -0.001770 0
1.000037 -0.002949 0
1.000170 -0.004184 0
1.000199 -0.005635 0
1.000207 -0.007187 0
1.000398 -0.008697 0
0.999598 -0.010865 0
0.999771 -0.014610 0
0.998507 -0.018694 0
0.998771 -0.024169 0
0.996026 -0.031812 0
0.995713 -0.040074 0
0.989863 -0.048897 0
0.992447 -0.062102 0
0.978968 -0.079416 0
0.980465 -0.103131 0
0.951515 -0.125272 0
0.954832 -0.181098 0
0.886011 -0.214645 0
0.871282 -0.415395 0
0.656873 -0.504958 0
0.000000 -0.001135 0
-0.624290 0.188119 0
-0.534721 0.000000 0
0.000000 0.000000 0
0.051750 0.134416 0
0.075259 -0.095529 0
0.081423 -0.136002 0
-0.021408 0.729901 0
-0.286096 1.063230 0
-0.012477 0.453509 0
-0.075026 -0.386240 0
-0.146353 -1.046149 0
-0.235237 -1.211722 0
0.237946 -0.735876 0
0.669977 -0.058429 0
0.901704 0.342002 0
1.044336 0.568321 0
1.118266 0.727208 0
1.204631 0.791141 0
1.280069 0.718659 0
1.200379 0.706104 0
0.998817 0.791144 0
0.917432 0.689398 0
0.900029 0.436805 0
0.794598 0.220866 0
0.668879 -0.019162 0
0.623089 -0.275596 0
0.659572 -0.458303 0
0.710867 -0.548361 0
0.734492 -0.584116 0
0.724656 -0.586393 0
0.704702 -0.533833 0
0.703983 -0.391752 0
0.718777 -0.169745 0
0.711903 0.075707 0
0.713811 0.293526 0
0.766321 0.441203 0
0.865299 0.498252 0
0.975744 0.491709 0
1.060684 0.453467 0
1.085842 0.418833 0
0.978487 0.322857 0
0.833185 0.189004 0
0.745661 0.110589 0
0.726022 -0.001915 0
0.632249 -0.211653 0
0.455587 -0.463680 0
0.411944 -0.585547 0
0.605834 -0.473394 0
0.773732 -0.329861 0
0.728800 -0.352178 0
0.624848 -0.400585 0
0.619342 -0.333311 0
0.683349 -0.214194 0
0.750702 -0.080065 0
0.769037 0.072671 0
0.733193 0.194476 0
0.712507 0.241867 0
0.762395 0.212803 0
0.864594 0.129919 0
0.954518 0.055869 0
0.983392 0.034127 0
0.923960 0.026492 0
0.800507 -0.015700 0
0.675982 -0.076387 0
0.621281 -0.081225 0
0.643508 0.006811 0
0.677454 0.084316 0
0.662970 0.048492 0
0.593205 -0.003282 0
0.563308 0.028919 0
0.643246 0.083782 0
0.757282 0.133239 0
0.747157 0.236487 0
0.601122 0.352047 0
0.480006 0.353600 0
0.491488 0.245933 0
0.612070 0.123516 0
0.634498 0.064480 0
1.000000 -0.000556 0
0.999937 -0.001714 0
0.999969 -0.003009 0
1.000034 -0.004255 0
0.999824 -0.005511 0
0.999600 -0.007201 0
0.999348 -0.008187 0
0.999840 -0.010674 0
0.998259 -0.013748 0
0.997464 -0.018441 0
0.995990 -0.022729 0
0.995557 -0.029242 0
0.989406 -0.035176 0
0.987801 -0.047721 0
0.979923 -0.054700 0
0.977008 -0.071624 0
0.958761 -0.083160 0
0.939816 -0.112926 0
0.918075 -0.128299 0
0.843059 -0.176245 0
0.815748 -0.183456 0
0.464129 -0.059162 0
0.351759 -0.000671 0
0.000000 0.000000 0
0.000000 0.000000 0
0.000000 0.000000 0
0.000000 0.000000 0
0.145373 -0.006094 0
-0.073372 0.188392 0
-0.536737 0.812893 0
-0.252248 0.844048 0
0.025178 0.241572 0
0.075540 -0.331585 0
0.046316 -0.885950 0
-0.071175 -1.209745 0
-0.058927 -1.059955 0
0.349160 -0.451693 0
0.665000 0.074409 0
0.895800 0.407118 0
1.036754 0.568694 0
1.121591 0.633983 0
1.095057 0.783963 0
0.962589 0.957960 0
0.907242 0.911022 0
0.943817 0.696939 0
0.899043 0.518380 0
0.832119 0.323016 0
0.801871 0.041957 0
0.743181 -0.251053 0
0.674447 -0.472664 0
0.639075 -0.597177 0
0.653044 -0.635123 0
0.697858 -0.598682 0
0.730853 -0.508900 0
0.729765 -0.381672 0
0.735504 -0.201777 0
0.782611 0.014546 0
0.861094 0.215401 0
0.943409 0.358295 0
1.015041 0.424308 0