# vtk DataFile Version 2.0
generated by CFD-lab course output (written by Tobias Neckel) 
ASCII

DATASET STRUCTURED_GRID
DIMENSIONS  101 21 1 
POINTS 2121 float

0.000000 0.000000 0
0.100000 0.000000 0
0.200000 0.000000 0
0.300000 0.000000 0
0.400000 0.000000 0
0.500000 0.000000 0
0.600000 0.000000 0
0.700000 0.000000 0
0.800000 0.000000 0
0.900000 0.000000 0
1.000000 0.000000 0
1.100000 0.000000 0
1.200000 0.000000 0
1.300000 0.000000 0
1.400000 0.000000 0
1.500000 0.000000 0
1.600000 0.000000 0
1.700000 0.000000 0
1.800000 0.000000 0
1.900000 0.000000 0
2.000000 0.000000 0
2.100000 0.000000 0
2.200000 0.000000 0
2.300000 0.000000 0
2.400000 0.000000 0
2.500000 0.000000 0
2.600000 0.000000 0
2.700000 0.000000 0
2.800000 0.000000 0
2.900000 0.000000 0
3.000000 0.000000 0
3.100000 0.000000 0
3.200000 0.000000 0
3.300000 0.000000 0
3.400000 0.000000 0
3.500000 0.000000 0
3.600000 0.000000 0
3.700000 0.000000 0
3.800000 0.000000 0
3.900000 0.000000 0
4.000000 0.000000 0
4.100000 0.000000 0
4.200000 0.000000 0
4.300000 0.000000 0
4.400000 0.000000 0
4.500000 0.000000 0
4.600000 0.000000 0
4.700000 0.000000 0
4.800000 0.000000 0
4.900000 0.000000 0
5.000000 0.000000 0
5.100000 0.000000 0
5.200000 0.000000 0
5.300000 0.000000 0
5.400000 0.000000 0
5.500000 0.000000 0
5.600000 0.000000 0
5.700000 0.000000 0
5.800000 0.000000 0
5.900000 0.000000 0
6.000000 0.000000 0
6.100000 0.000000 0
6.200000 0.000000 0
6.300000 0.000000 0
6.400000 0.000000 0
6.500000 0.000000 0
6.600000 0.000000 0
6.700000 0.000000 0
6.800000 0.000000 0
6.900000 0.000000 0
7.000000 0.000000 0
7.100000 0.000000 0
7.200000 0.000000 0
7.300000 0.000000 0
7.400000 0.000000 0
7.500000 0.000000 0
7.600000 0.000000 0
7.700000 0.000000 0
7.800000 0.000000 0
7.900000 0.000000 0
8.000000 0.000000 0
8.100000 0.000000 0
8.200000 0.000000 0
8.300000 0.000000 0
8.400000 0.000000 0
8.500000 0.000000 0
8.600000 0.000000 0
8.700000 0.000000 0
8.800000 0.000000 0
8.900000 0.000000 0
9.000000 0.000000 0
9.100000 0.000000 0
9.200000 0.000000 0
9.300000 0.000000 0
9.400000 0.000000 0
9.500000 0.000000 0
9.600000 0.000000 0
9.700000 0.000000 0
9.800000 0.000000 0
9.900000 0.000000 0
10.000000 0.000000 0
0.000000 0.100000 0
0.100000 0.100000 0
0.200000 0.100000 0
0.300000 0.100000 0
0.400000 0.100000 0
0.500000 0.100000 0
0.600000 0.100000 0
0.700000 0.100000 0
0.800000 0.100000 0
0.900000 0.100000 0
1.000000 0.100000 0
1.100000 0.100000 0
1.200000 0.100000 0
1.300000 0.100000 0
1.400000 0.100000 0
1.500000 0.100000 0
1.600000 0.100000 0
1.700000 0.100000 0
1.800000 0.100000 0
1.900000 0.100000 0
2.000000 0.100000 0
2.100000 0.100000 0
2.200000 0.100000 0
2.300000 0.100000 0
2.400000 0.100000 0
2.500000 0.100000 0
2.600000 0.100000 0
2.700000 0.100000 0
2.800000 0.100000 0
2.900000 0.100000 0
3.000000 0.100000 0
3.100000 0.100000 0
3.200000 0.100000 0
3.300000 0.100000 0
3.400000 0.100000 0
3.500000 0.100000 0
3.600000 0.100000 0
3.700000 0.100000 0
3.800000 0.100000 0
3.900000 0.100000 0
4.000000 0.100000 0
4.100000 0.100000 0
4.200000 0.100000 0
4.300000 0.100000 0
4.400000 0.100000 0
4.500000 0.100000 0
4.600000 0.100000 0
4.700000 0.100000 0
4.800000 0.100000 0
4.900000 0.100000 0
5.000000 0.100000 0
5.100000 0.100000 0
5.200000 0.100000 0
5.300000 0.100000 0
5.400000 0.100000 0
5.500000 0.100000 0
5.600000 0.100000 0
5.700000 0.100000 0
5.800000 0.100000 0
5.900000 0.100000 0
6.000000 0.100000 0
6.100000 0.100000 0
6.200000 0.100000 0
6.300000 0.100000 0
6.400000 0.100000 0
6.500000 0.100000 0
6.600000 0.100000 0
6.700000 0.100000 0
6.800000 0.100000 0
6.900000 0.100000 0
7.000000 0.100000 0
7.100000 0.100000 0
7.200000 0.100000 0
7.300000 0.100000 0
7.400000 0.100000 0
7.500000 0.100000 0
7.600000 0.100000 0
7.700000 0.100000 0
7.800000 0.100000 0
7.900000 0.100000 0
8.000000 0.100000 0
8.100000 0.100000 0
8.200000 0.100000 0
8.300000 0.100000 0
8.400000 0.100000 0
8.500000 0.100000 0
8.600000 0.100000 0
8.700000 0.100000 0
8.800000 0.100000 0
8.900000 0.100000 0
9.000000 0.100000 0
9.100000 0.100000 0
9.200000 0.100000 0
9.300000 0.100000 0
9.400000 0.100000 0
9.500000 0.100000 0
9.600000 0.100000 0
9.700000 0.100000 0
9.800000 0.100000 0
9.900000 0.100000 0
10.000000 0.100000 0
0.000000 0.200000 0
0.100000 0.200000 0
0.200000 0.200000 0
0.300000 0.200000 0
0.400000 0.200000 0
0.500000 0.200000 0
0.600000 0.200000 0
0.700000 0.200000 0
0.800000 0.200000 0
0.900000 0.200000 0
1.000000 0.200000 0
1.100000 0.200000 0
1.200000 0.200000 0
1.300000 0.200000 0
1.400000 0.200000 0
1.500000 0.200000 0
1.600000 0.200000 0
1.700000 0.200000 0
1.800000 0.200000 0
1.900000 0.200000 0
2.000000 0.200000 0
2.100000 0.200000 0
2.200000 0.200000 0
2.300000 0.200000 0
2.400000 0.200000 0
2.500000 0.200000 0
2.600000 0.200000 0
2.700000 0.200000 0
2.800000 0.200000 0
2.900000 0.200000 0
3.000000 0.200000 0
3.100000 0.200000 0
3.200000 0.200000 0
3.300000 0.200000 0
3.400000 0.200000 0
3.500000 0.200000 0
3.600000 0.200000 0
3.700000 0.200000 0
3.800000 0.200000 0
3.900000 0.200000 0
4.000000 0.200000 0
4.100000 0.200000 0
4.200000 0.200000 0
4.300000 0.200000 0
4.400000 0.200000 0
4.500000 0.200000 0
4.600000 0.200000 0
4.700000 0.200000 0
4.800000 0.200000 0
4.900000 0.200000 0
5.000000 0.200000 0
5.100000 0.200000 0
5.200000 0.200000 0
5.300000 0.200000 0
5.400000 0.200000 0
5.500000 0.200000 0
5.600000 0.200000 0
5.700000 0.200000 0
5.800000 0.200000 0
5.900000 0.200000 0
6.000000 0.200000 0
6.100000 0.200000 0
6.200000 0.200000 0
6.300000 0.200000 0
6.400000 0.200000 0
6.500000 0.200000 0
6.600000 0.200000 0
6.700000 0.200000 0
6.800000 0.200000 0
6.900000 0.200000 0
7.000000 0.200000 0
7.100000 0.200000 0
7.200000 0.200000 0
7.300000 0.200000 0
7.400000 0.200000 0
7.500000 0.200000 0
7.600000 0.200000 0
7.700000 0.200000 0
7.800000 0.200000 0
7.900000 0.200000 0
8.000000 0.200000 0
8.100000 0.200000 0
8.200000 0.200000 0
8.300000 0.200000 0
8.400000 0.200000 0
8.500000 0.200000 0
8.600000 0.200000 0
8.700000 0.200000 0
8.800000 0.200000 0
8.900000 0.200000 0
9.000000 0.200000 0
9.100000 0.200000 0
9.200000 0.200000 0
9.300000 0.200000 0
9.400000 0.200000 0
9.500000 0.200000 0
9.600000 0.200000 0
9.700000 0.200000 0
9.800000 0.200000 0
9.900000 0.200000 0
10.000000 0.200000 0
0.000000 0.300000 0
0.100000 0.300000 0
0.200000 0.300000 0
0.300000 0.300000 0
0.400000 0.300000 0
0.500000 0.300000 0
0.600000 0.300000 0
0.700000 0.300000 0
0.800000 0.300000 0
0.900000 0.300000 0
1.000000 0.300000 0
1.100000 0.300000 0
1.200000 0.300000 0
1.300000 0.300000 0
1.400000 0.300000 0
1.500000 0.300000 0
1.600000 0.300000 0
1.700000 0.300000 0
1.800000 0.300000 0
1.900000 0.300000 0
2.000000 0.300000 0
2.100000 0.300000 0
2.200000 0.300000 0
2.300000 0.300000 0
2.400000 0.300000 0
2.500000 0.300000 0
2.600000 0.300000 0
2.700000 0.300000 0
2.800000 0.300000 0
2.900000 0.300000 0
3.000000 0.300000 0
3.100000 0.300000 0
3.200000 0.300000 0
3.300000 0.300000 0
3.400000 0.300000 0
3.500000 0.300000 0
3.600000 0.300000 0
3.700000 0.300000 0
3.800000 0.300000 0
3.900000 0.300000 0
4.000000 0.300000 0
4.100000 0.300000 0
4.200000 0.300000 0
4.300000 0.300000 0
4.400000 0.300000 0
4.500000 0.300000 0
4.600000 0.300000 0
4.700000 0.300000 0
4.800000 0.300000 0
4.900000 0.300000 0
5.000000 0.300000 0
5.100000 0.300000 0
5.200000 0.300000 0
5.300000 0.300000 0
5.400000 0.300000 0
5.500000 0.300000 0
5.600000 0.300000 0
5.700000 0.300000 0
5.800000 0.300000 0
5.900000 0.300000 0
6.000000 0.300000 0
6.100000 0.300000 0
6.200000 0.300000 0
6.300000 0.300000 0
6.400000 0.300000 0
6.500000 0.300000 0
6.600000 0.300000 0
6.700000 0.300000 0
6.800000 0.300000 0
6.900000 0.300000 0
7.000000 0.300000 0
7.100000 0.300000 0
7.200000 0.300000 0
7.300000 0.300000 0
7.400000 0.300000 0
7.500000 0.300000 0
7.600000 0.300000 0
7.700000 0.300000 0
7.800000 0.300000 0
7.900000 0.300000 0
8.000000 0.300000 0
8.100000 0.300000 0
8.200000 0.300000 0
8.300000 0.300000 0
8.400000 0.300000 0
8.500000 0.300000 0
8.600000 0.300000 0
8.700000 0.300000 0
8.800000 0.300000 0
8.900000 0.300000 0
9.000000 0.300000 0
9.100000 0.300000 0
9.200000 0.300000 0
9.300000 0.300000 0
9.400000 0.300000 0
9.500000 0.300000 0
9.600000 0.300000 0
9.700000 0.300000 0
9.800000 0.300000 0
9.900000 0.300000 0
10.000000 0.300000 0
0.000000 0.400000 0
0.100000 0.400000 0
0.200000 0.400000 0
0.300000 0.400000 0
0.400000 0.400000 0
0.500000 0.400000 0
0.600000 0.400000 0
0.700000 0.400000 0
0.800000 0.400000 0
0.900000 0.400000 0
1.000000 0.400000 0
1.100000 0.400000 0
1.200000 0.400000 0
1.300000 0.400000 0
1.400000 0.400000 0
1.500000 0.400000 0
1.600000 0.400000 0
1.700000 0.400000 0
1.800000 0.400000 0
1.900000 0.400000 0
2.000000 0.400000 0
2.100000 0.400000 0
2.200000 0.400000 0
2.300000 0.400000 0
2.400000 0.400000 0
2.500000 0.400000 0
2.600000 0.400000 0
2.700000 0.400000 0
2.800000 0.400000 0
2.900000 0.400000 0
3.000000 0.400000 0
3.100000 0.400000 0
3.200000 0.400000 0
3.300000 0.400000 0
3.400000 0.400000 0
3.500000 0.400000 0
3.600000 0.400000 0
3.700000 0.400000 0
3.800000 0.400000 0
3.900000 0.400000 0
4.000000 0.400000 0
4.100000 0.400000 0
4.200000 0.400000 0
4.300000 0.400000 0
4.400000 0.400000 0
4.500000 0.400000 0
4.600000 0.400000 0
4.700000 0.400000 0
4.800000 0.400000 0
4.900000 0.400000 0
5.000000 0.400000 0
5.100000 0.400000 0
5.200000 0.400000 0
5.300000 0.400000 0
5.400000 0.400000 0
5.500000 0.400000 0
5.600000 0.400000 0
5.700000 0.400000 0
5.800000 0.400000 0
5.900000 0.400000 0
6.000000 0.400000 0
6.100000 0.400000 0
6.200000 0.400000 0
6.300000 0.400000 0
6.400000 0.400000 0
6.500000 0.400000 0
6.600000 0.400000 0
6.700000 0.400000 0
6.800000 0.400000 0
6.900000 0.400000 0
7.000000 0.400000 0
7.100000 0.400000 0
7.200000 0.400000 0
7.300000 0.400000 0
7.400000 0.400000 0
7.500000 0.400000 0
7.600000 0.400000 0
7.700000 0.400000 0
7.800000 0.400000 0
7.900000 0.400000 0
8.000000 0.400000 0
8.100000 0.400000 0
8.200000 0.400000 0
8.300000 0.400000 0
8.400000 0.400000 0
8.500000 0.400000 0
8.600000 0.400000 0
[...]
POINT_DATA 2121 

VECTORS velocity float
0.500000 0.000000 0
-0.000001 0.000000 0
0.000002 0.000000 0
0.000001 0.000000 0
-0.000012 0.000000 0
-0.000017 0.000000 0
-0.000032 0.000000 0
-0.000076 0.000000 0
-0.000153 0.000000 0
-0.000134 0.000000 0
-0.000168 0.000000 0
-0.000221 0.000000 0
-0.000280 0.000000 0
-0.000350 0.000000 0
-0.000429 0.000000 0
-0.000519 0.000000 0
-0.000620 0.000000 0
-0.000732 0.000000 0
-0.000856 0.000000 0
-0.000992 0.000000 0
-0.001135 0.000000 0
-0.001280 0.000000 0
-0.001421 0.000000 0
-0.001589 0.000000 0
-0.001702 0.000000 0
-0.001819 0.000000 0
-0.001807 0.000000 0
-0.001633 0.000000 0
-0.001242 0.000000 0
-0.000508 0.000000 0
0.000705 0.000000 0
0.002329 0.000000 0
0.003697 0.000000 0
0.005045 0.000000 0
0.006233 0.000000 0
0.007053 0.000000 0
0.006910 0.000000 0
0.009134 0.000000 0
0.011773 0.000000 0
-0.007667 0.000000 0
0.017894 0.000000 0
0.040804 0.000000 0
0.026733 0.000000 0
0.004660 0.000000 0
-0.015111 0.000000 0
-0.032251 0.000000 0
-0.035137 0.000000 0
-0.026240 0.000000 0
-0.031131 0.000000 0
-0.030522 0.000000 0
-0.029588 0.000000 0
-0.023854 0.000000 0
-0.011916 0.000000 0
0.004375 0.000000 0
0.022232 0.000000 0
0.031741 0.000000 0
0.036948 0.000000 0
0.054226 0.000000 0
0.030589 0.000000 0
0.002549 0.000000 0
0.004330 0.000000 0
-0.002644 0.000000 0
-0.013246 0.000000 0
-0.017939 0.000000 0
-0.017280 0.000000 0
-0.011755 0.000000 0
-0.007912 0.000000 0
-0.008513 0.000000 0
-0.008311 0.000000 0
-0.007419 0.000000 0
-0.005737 0.000000 0
-0.003613 0.000000 0
-0.001366 0.000000 0
0.000484 0.000000 0
0.001455 0.000000 0
0.001819 0.000000 0
0.003527 0.000000 0
0.008540 0.000000 0
0.016010 0.000000 0
0.023142 0.000000 0
0.020680 0.000000 0
0.000323 0.000000 0
-0.009457 0.000000 0
-0.012382 0.000000 0
-0.010297 0.000000 0
-0.009414 0.000000 0
-0.008601 0.000000 0
-0.007058 0.000000 0
-0.004601 0.000000 0
-0.001441 0.000000 0
0.002029 0.000000 0
0.005936 0.000000 0
0.008435 0.000000 0
0.008529 0.000000 0
0.008780 0.000000 0
0.006244 0.000000 0
0.008277 0.000000 0
0.007218 0.000000 0
0.007463 0.000000 0
0.004488 0.000000 0
0.003756 0.000000 0
1.000000 0.000355 0
0.999892 0.000872 0
0.999764 0.001059 0
0.999726 0.000985 0
0.999895 0.000711 0
1.000385 0.000364 0
1.001318 -0.000146 0
1.002882 -0.001146 0
1.005318 -0.002460 0
1.008794 -0.003546 0
1.013467 -0.004756 0
1.019680 -0.006545 0
1.027847 -0.008847 0
1.038481 -0.011750 0
1.052215 -0.015372 0
1.069819 -0.019837 0
1.092222 -0.025239 0
1.120457 -0.031568 0
1.155542 -0.038610 0
1.198224 -0.045799 0
1.248583 -0.052065 0
1.305207 -0.055831 0
1.364782 -0.055379 0
1.421292 -0.050346 0
1.469009 -0.041444 0
1.505418 -0.030628 0
1.530705 -0.020205 0
1.545798 -0.011403 0
1.553386 -0.004663 0
1.556404 0.001763 0
1.554493 0.011476 0
1.542268 0.025937 0
1.512478 0.042949 0
1.463307 0.060280 0
1.397142 0.076691 0
1.316373 0.087744 0
1.225588 0.092646 0
1.126738 0.147158 0
1.022978 0.088186 0
0.900815 -0.082587 0
0.648231 0.054698 0
0.379092 0.339591 0
0.182793 0.342400 0
0.091673 0.135546 0
0.113987 -0.098962 0
0.255272 -0.274030 0
0.539548 -0.317179 0
0.872443 -0.271099 0
1.130165 -0.245381 0
1.353019 -0.237666 0
1.550432 -0.211028 0
1.716861 -0.160013 0
1.827978 -0.077707 0
1.860498 0.033736 0
1.794985 0.151166 0
1.644238 0.233689 0
1.432220 0.328022 0
1.169165 0.437720 0
0.925919 0.328927 0
0.744709 0.104383 0
0.528136 0.031797 0
0.414084 -0.020953 0
0.448303 -0.116347 0
0.555946 -0.176855 0
0.700904 -0.177370 0
0.861891 -0.130366 0
0.993265 -0.096560 0
1.090817 -0.093292 0
1.187483 -0.090742 0
1.278756 -0.080919 0
1.356859 -0.063555 0
1.413220 -0.040735 0
1.444199 -0.016649 0
1.450729 0.003812 0
1.439821 0.016963 0
1.421055 0.025244 0
1.391212 0.040992 0
1.326230 0.076631 0
1.222991 0.127321 0
1.108441 0.185786 0
1.013217 0.166596 0
0.969628 0.042603 0
0.972778 -0.065605 0
1.004326 -0.104546 0
1.057275 -0.100074 0
1.121810 -0.087158 0
1.187933 -0.076661 0
1.247923 -0.060939 0
1.294447 -0.037787 0
1.317219 -0.008618 0
1.308295 0.024488 0
1.268196 0.059659 0
1.216436 0.081528 0
1.193298 0.085358 0
1.106671 0.079947 0
0.978621 0.073314 0
0.903913 0.067617 0
0.891543 0.063794 0
0.902123 0.051649 0
0.921719 0.024091 0
0.924513 0.008249 0
1.000000 0.000107 0
1.000409 0.000234 0
1.001094 0.000165 0
1.002008 -0.000131 0
1.003148 -0.000660 0
1.004583 -0.001425 0
1.006495 -0.002500 0
1.008946 -0.004003 0
1.011880 -0.005914 0
1.015596 -0.008152 0
1.020640 -0.010889 0
1.027120 -0.014384 0
1.035362 -0.018806 0
1.045813 -0.024369 0
1.059052 -0.031340 0
1.075835 -0.040011 0
1.097156 -0.050639 0
1.124229 -0.063317 0
1.158458 -0.077765 0
1.201249 -0.093037 0
1.253747 -0.106979 0
1.315165 -0.116196 0
1.383972 -0.116081 0
1.447009 -0.104224 0
1.496367 -0.084121 0
1.533009 -0.061692 0
1.557287 -0.040379 0
1.569618 -0.022680 0
1.574111 -0.010603 0
1.577974 -0.001106 0
1.583849 0.014138 0
1.584112 0.042017 0
1.564769 0.078959 0
1.519819 0.115336 0
1.454850 0.146933 0
1.373442 0.171551 0
1.275796 0.189630 0
1.166974 0.202606 0
1.118024 0.225918 0
0.917241 0.374741 0
0.570037 0.521717 0
0.485206 0.465432 0
0.580115 0.287413 0
0.591011 0.068798 0
0.574608 -0.163608 0
0.503381 -0.425570 0
0.518982 -0.617180 0
0.746200 -0.590626 0
1.012119 -0.480586 0
1.191319 -0.420277 0
1.327794 -0.363851 0
1.427044 -0.277555 0
1.503162 -0.143646 0
1.544651 0.032984 0
1.542884 0.216253 0
1.493873 0.362758 0
1.394507 0.475065 0
1.308750 0.506295 0
1.245710 0.424450 0
1.002821 0.397777 0
0.748852 0.330620 0
0.687619 0.079829 0
0.684471 -0.141867 0
0.646676 -0.252606 0
0.645666 -0.305947 0
0.737260 -0.292363 0
0.881599 -0.228927 0
1.009494 -0.194218 0
1.111707 -0.187939 0
1.208440 -0.169374 0
1.294355 -0.134460 0
1.355408 -0.087336 0
1.389200 -0.037504 0
1.394095 0.004385 0
1.375610 0.029681 0
1.358932 0.048618 0
1.370011 0.094835 0
1.373186 0.168232 0
1.349360 0.217800 0
1.312605 0.209786 0
1.297501 0.138826 0
1.253260 0.040452 0
1.178085 -0.034684 0
1.115790 -0.084483 0
1.103417 -0.117470 0
1.131883 -0.130645 0
1.172891 -0.126100 0
1.215931 -0.106502 0
1.255833 -0.069285 0
1.275396 -0.013837 0
1.272057 0.049033 0
1.277862 0.091869 0
1.234965 0.074907 0
1.068024 0.109773 0
0.880546 0.214685 0
0.739493 0.202764 0
0.686745 0.087085 0
0.717721 0.001797 0
0.755456 -0.030171 0
0.800525 -0.022384 0
0.805291 -0.005956 0
1.000000 -0.000056 0
1.000274 -0.000223 0
1.000790 -0.000539 0
1.001519 -0.001069 0
1.002469 -0.001865 0
1.003695 -0.002986 0
1.005294 -0.004510 0
1.007341 -0.006532 0
1.009926 -0.009111 0
1.013247 -0.012308 0
1.017576 -0.016282 0
1.023113 -0.021269 0
1.030132 -0.027542 0
1.039005 -0.035439 0
1.050231 -0.045396 0
1.064523 -0.057941 0
1.082933 -0.073630 0
1.106944 -0.092867 0
1.138483 -0.115627 0
1.180085 -0.141086 0
1.234901 -0.165980 0
1.303286 -0.186054 0
1.395167 -0.187221 0
1.468322 -0.162740 0
1.518230 -0.127442 0
1.553427 -0.091547 0
1.575711 -0.056816 0
1.581348 -0.028224 0
1.574865 -0.013017 0
1.574463 -0.007975 0
1.592601 0.005339 0
1.615635 0.045017 0
1.610097 0.107242 0
1.566598 0.170200 0
1.497449 0.223068 0
1.417199 0.266794 0
1.327008 0.299112 0
1.224923 0.304932 0
1.104496 0.337916 0
0.961493 0.465398 0
0.968003 0.486733 0
1.065597 0.329511 0
1.016097 0.236593 0
0.984721 0.141051 0
1.008546 -0.011335 0
1.001502 -0.218407 0
0.874645 -0.560001 0
0.760266 -0.764240 0
0.870064 -0.690502 0
1.037274 -0.553343 0
1.142593 -0.446756 0
1.195866 -0.335383 0
1.240626 -0.195315 0
1.281009 -0.005988 0
1.312754 0.201942 0
1.320566 0.382064 0
1.301630 0.513144 0
1.261958 0.586516 0
1.148815 0.634854 0
0.997679 0.601239 0
1.068287 0.346998 0
1.177854 0.043426 0
1.051644 -0.075405 0
0.854556 -0.138049 0
0.745998 -0.267953 0
0.717295 -0.366300 0
0.756123 -0.368794 0
0.848293 -0.323398 0
0.959312 -0.289687 0
1.080957 -0.263565 0
1.177628 -0.210520 0
1.242147 -0.135576 0
1.278052 -0.055333 0
1.281431 0.017404 0
1.251960 0.052130 0
1.204117 0.030848 0
1.139881 0.026742 0
1.120624 0.097287 0
1.140162 0.187907 0
1.174108 0.237650 0
1.191717 0.225945 0
1.162449 0.162024 0
1.085774 0.071870 0
1.014394 -0.029874 0
0.984942 -0.116163 0
0.990320 -0.156629 0
1.038026 -0.160706 0
1.092385 -0.143877 0
1.141532 -0.097249 0
1.170990 -0.024841 0
1.141635 0.022023 0
1.054606 0.096752 0
0.947293 0.291367 0
0.789023 0.439778 0
0.714653 0.408478 0
0.734995 0.267114 0
0.761436 0.089389 0
0.692627 -0.004917 0
0.585942 -0.031155 0
0.527432 -0.025744 0
0.516028 -0.001431 0
1.000000 -0.000167 0
1.000177 -0.000555 0
1.000562 -0.001080 0
1.001116 -0.001811 0
1.001841 -0.002838 0
1.002789 -0.004252 0
1.004031 -0.006147 0
1.005630 -0.008635 0
1.007709 -0.011820 0
1.010413 -0.015805 0
1.013880 -0.020758 0
1.018255 -0.026942 0
1.023741 -0.034698 0
1.030600 -0.044470 0
1.039189 -0.056860 0
1.050036 -0.072711 0
1.064177 -0.093057 0
1.083357 -0.118865 0
1.109801 -0.150904 0
1.147715 -0.189453 0
1.202449 -0.230177 0
1.277324 -0.276461 0
1.423218 -0.281116 0
1.510524 -0.227284 0
1.551793 -0.169225 0
1.578885 -0.119173 0
1.599706 -0.068297 0
1.596210 -0.021831 0
1.563456 -0.003717 0
1.543725 -0.018839 0
1.579587 -0.027033 0
1.659735 0.024520 0
1.687828 0.127999 0
1.643475 0.227985 0
1.548338 0.296331 0
1.437900 0.341990 0
1.333978 0.381907 0
1.235699 0.425118 0
1.109651 0.489347 0
1.018235 0.511234 0
1.051018 0.417612 0
0.943605 0.417337 0
0.782072 0.368287 0
0.815783 0.076347 0
0.852500 -0.180392 0
0.911006 -0.291671 0
0.909652 -0.375946 0
0.779332 -0.586048 0
0.723958 -0.757595 0
0.826309 -0.692807 0
0.961711 -0.522446 0
1.044239 -0.375590 0
1.056739 -0.228789 0
1.055286 -0.039145 0
1.074627 0.176693 0
1.105761 0.373880 0
1.144551 0.533673 0
1.164263 0.659108 0
1.174021 0.688728 0
1.294164 0.478305 0
1.386942 0.150444 0
1.156505 0.096470 0
0.946146 0.181431 0
0.847841 0.053043 0
0.777025 -0.168687 0
0.719880 -0.302488 0
0.674811 -0.359924 0
0.652116 -0.397406 0
0.680914 -0.420600 0
0.796864 -0.387689 0
0.964743 -0.295648 0
1.079454 -0.187757 0
1.117032 -0.076785 0
1.126492 0.030480 0
1.108291 0.106999 0
1.013187 0.160701 0
0.860043 0.178333 0
0.748965 0.167955 0
0.735351 0.164320 0
0.828155 0.158236 0
0.943708 0.150491 0
0.996022 0.146399 0
0.983994 0.113374 0
0.969444 0.016352 0
0.988934 -0.093393 0
0.987916 -0.183726 0
0.944818 -0.228162 0
0.964615 -0.210006 0
1.038484 -0.147889 0
1.108493 -0.013939 0
1.117438 0.165417 0
1.030087 0.286210 0
0.950869 0.340489 0
0.987301 0.342412 0
1.058398 0.268712 0
1.084109 0.155980 0
1.026493 0.129451 0
0.922194 0.177289 0
0.870198 0.135023 0
0.823186 0.047528 0
0.813632 0.015277 0
1.000000 -0.000233 0
1.000057 -0.000785 0
1.000363 -0.001478 0
1.000754 -0.002349 0
1.001219 -0.003540 0
1.001839 -0.005177 0
1.002686 -0.007352 0
1.003747 -0.010210 0
1.005203 -0.013895 0
1.007186 -0.018482 0
1.009672 -0.024125 0
1.012700 -0.031131 0
1.016400 -0.039887 0
1.020885 -0.050890 0
1.026306 -0.064833 0
1.032641 -0.082926 0
1.040758 -0.106948 0
1.052870 -0.138489 0
1.070020 -0.179982 0
1.099602 -0.233733 0
1.144239 -0.295587 0
1.226313 -0.406821 0
1.479713 -0.420419 0
1.550706 -0.291312 0
1.543599 -0.195803 0
1.539433 -0.139460 0
1.556872 -0.074135 0
1.559611 0.008029 0
1.462358 0.039468 0
1.390638 -0.024104 0
1.416732 -0.110671 0
1.621108 -0.063222 0
1.733868 0.123504 0
1.732854 0.309690 0
1.652763 0.428642 0
1.516900 0.481155 0
1.368500 0.501315 0
1.241068 0.529257 0
1.153136 0.555379 0
1.145257 0.524031 0
1.096892 0.561364 0
0.895580 0.598456 0
0.835977 0.364414 0
0.776137 0.070622 0
0.654565 -0.106560 0
0.608013 -0.275561 0
0.675781 -0.428329 0
0.764392 -0.578546 0
0.749540 -0.737479 0
0.735509 -0.791098 0
0.801619 -0.664688 0
0.886820 -0.430412 0
0.925205 -0.206362 0
0.925937 -0.023877 0
0.946003 0.151465 0
0.997775 0.312139 0
1.062180 0.454642 0
1.165888 0.557044 0
1.344614 0.504953 0
1.363216 0.388319 0
0.996606 0.484656 0
0.622250 0.484221 0
0.551193 0.233261 0
0.564319 0.031073 0
0.505840 -0.139992 0
0.487756 -0.264085 0
0.531085 -0.301028 0
0.536423 -0.329500 0
0.481686 -0.434433 0
0.469290 -0.547392 0
0.614581 -0.493107 0
0.809900 -0.287862 0
0.919722 -0.102367 0
0.950034 0.026149 0
0.944456 0.165438 0
0.910849 0.279101 0
0.896688 0.290969 0
0.898616 0.221984 0
0.915141 0.108722 0
0.885280 0.029296 0
0.811196 0.058082 0
0.744464 0.121742 0
0.702687 0.098452 0
0.705000 -0.034812 0
0.802399 -0.134634 0
0.945950 -0.112512 0
0.969497 -0.137404 0
0.892829 -0.237543 0
0.813494 -0.241127 0
0.786607 -0.103795 0
0.828771 0.100428 0
0.896451 0.263320 0
0.941571 0.334151 0
0.963232 0.332246 0
0.940322 0.311666 0
0.872769 0.299016 0
0.786638 0.251301 0
0.788315 0.151374 0
0.845121 0.067849 0
0.860814 0.030819 0
0.855870 0.017789 0
1.000000 -0.000224 0
0.999994 -0.000918 0
1.000131 -0.001778 0
1.000428 -0.002669 0
1.000642 -0.003924 0
1.000916 -0.005719 0
1.001389 -0.008056 0
1.001735 -0.011153 0
1.002442 -0.015261 0
1.003752 -0.020276 0
1.005243 -0.026273 0
1.006813 -0.033670 0
1.008593 -0.042883 0
1.010548 -0.054377 0
1.012814 -0.068614 0
1.013766 -0.087160 0
1.014106 -0.113284 0
1.019576 -0.148125 0
1.017981 -0.197633 0
1.039413 -0.263669 0
1.048070 -0.356886 0
1.153272 -0.611933 0
1.478294 -0.605507 0
1.382180 -0.291168 0
1.268156 -0.157951 0
1.187646 -0.132442 0
1.159839 -0.088473 0
1.248238 0.072685 0
1.192248 0.165258 0
0.864554 0.026788 0
0.764776 -0.257503 0
1.216410 -0.292614 0
1.482848 0.016255 0
1.564205 0.309090 0
1.595655 0.512285 0
1.554571 0.626255 0
1.456218 0.657741 0
1.332720 0.640482 0
1.240204 0.585157 0
1.200570 0.567478 0
1.076603 0.667290 0
1.012041 0.678251 0
0.980340 0.487729 0
0.837991 0.257758 0
0.767017 -0.012269 0
0.789009 -0.312888 0
0.823720 -0.532327 0
0.848338 -0.659808 0
0.841152 -0.728712 0
0.811866 -0.744887 0
0.797612 -0.673758 0
0.816894 -0.499176 0
0.851364 -0.267907 0
0.873031 -0.059945 0
0.895483 0.104855 0
0.957246 0.257703 0
1.056256 0.365560 0
1.157188 0.376674 0
1.103869 0.491400 0
0.782575 0.826312 0
0.465191 0.891408 0
0.559087 0.541885 0
0.661830 0.239364 0
0.638270 0.098395 0
0.554055 -0.092123 0
0.441893 -0.327731 0
0.449939 -0.408590 0
0.569705 -0.348005 0
0.651552 -0.353465 0
0.559272 -0.520581 0
0.442275 -0.636255 0
0.537574 -0.492895 0
0.675295 -0.216916 0
0.737556 0.005749 0
0.760289 0.146188 0
0.801981 0.208473 0
0.840494 0.190569 0
0.845413 0.149506 0
0.778095 0.177660 0
0.589565 0.262185 0
0.403308 0.291310 0
0.315250 0.254911 0
0.294484 0.152840 0
0.303134 -0.083359 0
0.353207 -0.334342 0
0.523857 -0.350823 0
0.713332 -0.175041 0
0.711073 -0.054004 0
0.581326 -0.041668 0
0.463620 -0.029217 0
0.441661 0.055571 0
0.503202 0.173408 0
0.589164 0.273704 0
0.650642 0.343657 0
0.664780 0.359172 0
0.656783 0.309661 0
0.648781 0.213901 0
0.632276 0.118802 0
0.615367 0.062519 0
0.621669 0.036775 0
0.615800 0.026008 0
1.000000 -0.000227 0
1.000042 -0.000917 0
0.999940 -0.001913 0
1.000178 -0.002861 0
1.000126 -0.004028 0
1.000173 -0.005924 0
1.000251 -0.008171 0
1.000075 -0.011264 0
0.999877 -0.015914 0
0.999752 -0.021283 0
1.000309 -0.027188 0
1.001696 -0.034481 0
1.001037 -0.043622 0
1.000225 -0.055111 0
0.999861 -0.068047 0
0.997283 -0.084215 0
0.992584 -0.112757 0
0.985888 -0.142362 0
0.973940 -0.199817 0
0.965533 -0.263819 0
0.933840 -0.409443 0
1.025916 -0.837043 0
0.719614 -0.568153 0
-0.001266 0.000000 0
-0.000550 0.000000 0
0.443451 -0.029874 0
0.365017 -0.134725 0
0.209377 -0.024377 0
0.419628 0.423154 0
-0.068628 0.403369 0
0.064937 -0.462525 0
0.249518 -0.781292 0
0.791970 -0.224289 0
1.101475 0.196883 0
1.265414 0.438277 0
1.319977 0.620594 0
1.322407 0.723168 0
1.279638 0.745272 0
1.217855 0.687531 0
1.099587 0.687634 0
0.945166 0.749892 0
0.950465 0.694719 0
0.924663 0.538464 0
0.845752 0.283945 0
0.830297 -0.057579 0
0.817265 -0.332265 0
0.800849 -0.487658 0
0.799345 -0.595978 0
0.795723 -0.701007 0
0.783948 -0.747559 0
0.783304 -0.669716 0
0.791087 -0.484163 0
0.787218 -0.262499 0
0.777191 -0.067996 0
0.765650 0.067250 0
0.789368 0.151367 0
0.855407 0.254698 0
0.803374 0.509431 0
0.527340 0.879567 0
0.306391 1.026996 0
0.438324 0.708143 0
0.628972 0.287584 0
0.725360 0.154077 0
0.805094 0.138847 0
0.915082 0.056386 0
0.896349 -0.159967 0
0.718236 -0.428839 0
0.637822 -0.531112 0
0.801822 -0.423998 0
0.930459 -0.338113 0
0.750511 -0.471406 0
0.514528 -0.520880 0
0.480847 -0.302346 0
0.539774 -0.058841 0
0.589005 0.101017 0
0.585640 0.198899 0
0.530762 0.247540 0
0.439057 0.284386 0
0.298694 0.364573 0
0.181457 0.404087 0
0.166216 0.332399 0
0.232840 0.230568 0
0.359360 0.110570 0
0.450960 -0.093534 0
0.417333 -0.355356 0
0.347905 -0.472637 0
0.400684 -0.324621 0
0.502698 -0.105538 0
0.582849 0.006323 0
0.639708 0.035866 0
0.681651 0.060843 0
0.712046 0.115813 0
0.712069 0.186707 0
0.689756 0.256625 0
0.665422 0.305520 0
0.653327 0.315010 0
0.652778 0.275803 0
0.649010 0.184783 0
0.622020 0.078450 0
0.599129 0.030380 0
0.593467 0.029004 0
1.000000 -0.000267 0
1.000070 -0.000859 0
0.999905 -0.001915 0
0.999955 -0.002856 0
1.000044 -0.003919 0
0.999369 -0.005845 0
0.999142 -0.007959 0
0.999043 -0.010781 0
0.999221 -0.014939 0
0.997211 -0.020709 0
0.997194 -0.028218 0
0.995128 -0.034398 0
0.996540 -0.041413 0
0.991076 -0.053199 0
0.989840 -0.065668 0
0.979265 -0.079881 0
0.982690 -0.101888 0
0.950652 -0.129480 0
0.954902 -0.177276 0
0.877553 -0.223566 0
0.865200 -0.417266 0
0.651504 -0.478877 0
0.000000 0.002387 0
-0.601399 0.182110 0
-0.510168 0.000000 0
0.000000 0.000000 0
-0.043301 0.132177 0
-0.133169 0.018077 0
-0.227069 0.443265 0
-0.250442 0.381481 0
-0.168612 -0.575646 0
-0.399880 -1.019644 0
-0.106920 -0.835701 0
0.462179 -0.164352 0
0.784094 0.293785 0
0.984343 0.569264 0
1.104449 0.698081 0
1.160881 0.745035 0
1.122085 0.765211 0
0.975816 0.840169 0
0.928655 0.816412 0
0.954490 0.698754 0
0.875016 0.592443 0
0.820167 0.352124 0
0.751390 0.016218 0
0.646587 -0.283440 0
0.584479 -0.514406 0
0.601131 -0.654681 0
0.660362 -0.713316 0
0.687837 -0.732468 0
0.682845 -0.680895 0
0.692581 -0.503090 0
0.719529 -0.254012 0
0.732091 -0.038376 0
0.714682 0.092679 0
0.648162 0.167946 0
0.529577 0.351554 0
0.349841 0.704741 0
0.272769 0.988383 0
0.429993 0.915327 0
0.690293 0.568828 0
0.753256 0.254850 0
0.673996 0.063242 0
0.661225 -0.091326 0
0.834337 -0.183377 0
0.993505 -0.130884 0
0.921940 -0.150061 0
0.699660 -0.431589 0
0.608974 -0.646100 0
0.804374 -0.469268 0
0.944387 -0.220321 0
0.732301 -0.223228 0
0.494852 -0.242159 0
0.431332 -0.102405 0
0.445568 0.100327 0
0.437114 0.266720 0
0.408446 0.337156 0
0.356687 0.381577 0
0.289231 0.435263 0
0.304458 0.394665 0
0.396510 0.239929 0
0.539162 0.061768 0
0.734328 -0.065279 0
0.861939 -0.141331 0
0.797140 -0.231287 0
0.584174 -0.334176 0
0.448295 -0.329836 0
0.474366 -0.236171 0
0.572546 -0.178681 0
0.668990 -0.128023 0
0.727067 -0.016771 0
0.733540 0.142984 0
0.686865 0.295988 0
0.622406 0.390298 0
0.596196 0.395594 0
0.629439 0.322298 0
0.688200 0.218211 0
0.724859 0.149552 0
0.737087 0.112393 0
0.711181 0.065322 0
0.707180 0.037230 0
1.000000 -0.000297 0
1.000045 -0.000822 0
0.999961 -0.001799 0
0.999667 -0.003000 0
0.999746 -0.003443 0
0.999617 -0.005023 0
0.998359 -0.007847 0
0.998283 -0.011345 0
0.998268 -0.014081 0
0.998424 -0.019258 0
0.994272 -0.025107 0
0.992031 -0.033826 0
0.989716 -0.039569 0
0.990595 -0.048408 0
0.978232 -0.056234 0
0.974007 -0.077064 0
0.956498 -0.084142 0
0.948053 -0.114572 0
0.911067 -0.126716 0
0.854184 -0.174115 0
0.801918 -0.183391 0
0.459713 -0.046782 0
0.363206 0.008411 0
0.000000 0.000000 0
0.000000 0.000000 0
0.000000 0.000000 0
0.000000 0.000000 0
0.147158 0.174374 0
0.017912 0.540430 0
0.286680 0.344915 0
-0.061932 -0.313083 0
-0.387049 -0.842981 0
-0.510763 -1.086345 0
-0.142290 -0.694128 0
0.341163 -0.083885 0
0.685136 0.300243 0
0.887975 0.546631 0
0.958392 0.727638 0
0.937711 0.872599 0
0.941043 0.881065 0
1.042151 0.771220 0
0.959529 0.748359 0
0.879381 0.672787 0
0.880843 0.407573 0
0.844133 0.116002 0
0.771787 -0.165354 0
0.688580 -0.442201 0
0.602477 -0.671860 0
0.590134 -0.787713 0
0.643165 -0.770041 0
0.678737 -0.674458 0
0.681341 -0.520847 0
0.690968 -0.302009 0
0.710947 -0.063149 0
0.697698 0.151180 0
0.605197 0.336473 0
0.444626 0.553019 0
0.371920 0.766239 0
0.510683 0.799414 0
0.780585 0.609472 0
0.954402 0.384883 0