# vtk DataFile Version 2.0
generated by CFD-lab course output (written by Tobias Neckel) 
ASCII

DATASET STRUCTURED_GRID
DIMENSIONS  101 21 1 
POINTS 2121 float

0.000000 0.000000 0
0.100000 0.000000 0
0.200000 0.000000 0
0.300000 0.000000 0
0.400000 0.000000 0
0.500000 0.000000 0
0.600000 0.000000 0
0.700000 0.000000 0
0.800000 0.000000 0
0.900000 0.000000 0
1.000000 0.000000 0
1.100000 0.000000 0
1.200000 0.000000 0
1.300000 0.000000 0
1.400000 0.000000 0
1.500000 0.000000 0
1.600000 0.000000 0
1.700000 0.000000 0
1.800000 0.000000 0
1.900000 0.000000 0
2.000000 0.000000 0
2.100000 0.000000 0
2.200000 0.000000 0
2.300000 0.000000 0
2.400000 0.000000 0
2.500000 0.000000 0
2.600000 0.000000 0
2.700000 0.000000 0
2.800000 0.000000 0
2.900000 0.000000 0
3.000000 0.000000 0
3.100000 0.000000 0
3.200000 0.000000 0
3.300000 0.000000 0
3.400000 0.000000 0
3.500000 0.000000 0
3.600000 0.000000 0
3.700000 0.000000 0
3.800000 0.000000 0
3.900000 0.000000 0
4.000000 0.000000 0
4.100000 0.000000 0
4.200000 0.000000 0
4.300000 0.000000 0
4.400000 0.000000 0
4.500000 0.000000 0
4.600000 0.000000 0
4.700000 0.000000 0
4.800000 0.000000 0
4.900000 0.000000 0
5.000000 0.000000 0
5.100000 0.000000 0
5.200000 0.000000 0
5.300000 0.000000 0
5.400000 0.000000 0
5.500000 0.000000 0
5.600000 0.000000 0
5.700000 0.000000 0
5.800000 0.000000 0
5.900000 0.000000 0
6.000000 0.000000 0
6.100000 0.000000 0
6.200000 0.000000 0
6.300000 0.000000 0
6.400000 0.000000 0
6.500000 0.000000 0
6.600000 0.000000 0
6.700000 0.000000 0
6.800000 0.000000 0
6.900000 0.000000 0
7.000000 0.000000 0
7.100000 0.000000 0
7.200000 0.000000 0
7.300000 0.000000 0
7.400000 0.000000 0
7.500000 0.000000 0
7.600000 0.000000 0
7.700000 0.000000 0
7.800000 0.000000 0
7.900000 0.000000 0
8.000000 0.000000 0
8.100000 0.000000 0
8.200000 0.000000 0
8.300000 0.000000 0
8.400000 0.000000 0
8.500000 0.000000 0
8.600000 0.000000 0
8.700000 0.000000 0
8.800000 0.000000 0
8.900000 0.000000 0
9.000000 0.000000 0
9.100000 0.000000 0
9.200000 0.000000 0
9.300000 0.000000 0
9.400000 0.000000 0
9.500000 0.000000 0
9.600000 0.000000 0
9.700000 0.000000 0
9.800000 0.000000 0
9.900000 0.000000 0
10.000000 0.000000 0
0.000000 0.100000 0
0.100000 0.100000 0
0.200000 0.100000 0
0.300000 0.100000 0
0.400000 0.100000 0
0.500000 0.100000 0
0.600000 0.100000 0
0.700000 0.100000 0
0.800000 0.100000 0
0.900000 0.100000 0
1.000000 0.100000 0
1.100000 0.100000 0
1.200000 0.100000 0
1.300000 0.100000 0
1.400000 0.100000 0
1.500000 0.100000 0
1.600000 0.100000 0
1.700000 0.100000 0
1.800000 0.100000 0
1.900000 0.100000 0
2.000000 0.100000 0
2.100000 0.100000 0
2.200000 0.100000 0
2.300000 0.100000 0
2.400000 0.100000 0
2.500000 0.100000 0
2.600000 0.100000 0
2.700000 0.100000 0
2.800000 0.100000 0
2.900000 0.100000 0
3.000000 0.100000 0
3.100000 0.100000 0
3.200000 0.100000 0
3.300000 0.100000 0
3.400000 0.100000 0
3.500000 0.100000 0
3.600000 0.100000 0
3.700000 0.100000 0
3.800000 0.100000 0
3.900000 0.100000 0
4.000000 0.100000 0
4.100000 0.100000 0
4.200000 0.100000 0
4.300000 0.100000 0
4.400000 0.100000 0
4.500000 0.100000 0
4.600000 0.100000 0
4.700000 0.100000 0
4.800000 0.100000 0
4.900000 0.100000 0
5.000000 0.100000 0
5.100000 0.100000 0
5.200000 0.100000 0
5.300000 0.100000 0
5.400000 0.100000 0
5.500000 0.100000 0
5.600000 0.100000 0
5.700000 0.100000 0
5.800000 0.100000 0
5.900000 0.100000 0
6.000000 0.100000 0
6.100000 0.100000 0
6.200000 0.100000 0
6.300000 0.100000 0
6.400000 0.100000 0
6.500000 0.100000 0
6.600000 0.100000 0
6.700000 0.100000 0
6.800000 0.100000 0
6.900000 0.100000 0
7.000000 0.100000 0
7.100000 0.100000 0
7.200000 0.100000 0
7.300000 0.100000 0
7.400000 0.100000 0
7.500000 0.100000 0
7.600000 0.100000 0
7.700000 0.100000 0
7.800000 0.100000 0
7.900000 0.100000 0
8.000000 0.100000 0
8.100000 0.100000 0
8.200000 0.100000 0
8.300000 0.100000 0
8.400000 0.100000 0
8.500000 0.100000 0
8.600000 0.100000 0
8.700000 0.100000 0
8.800000 0.100000 0
8.900000 0.100000 0
9.000000 0.100000 0
9.100000 0.100000 0
9.200000 0.100000 0
9.300000 0.100000 0
9.400000 0.100000 0
9.500000 0.100000 0
9.600000 0.100000 0
9.700000 0.100000 0
9.800000 0.100000 0
9.900000 0.100000 0
10.000000 0.100000 0
0.000000 0.200000 0
0.100000 0.200000 0
0.200000 0.200000 0
0.300000 0.200000 0
0.400000 0.200000 0
0.500000 0.200000 0
0.600000 0.200000 0
0.700000 0.200000 0
0.800000 0.200000 0
0.900000 0.200000 0
1.000000 0.200000 0
1.100000 0.200000 0
1.200000 0.200000 0
1.300000 0.200000 0
1.400000 0.200000 0
1.500000 0.200000 0
1.600000 0.200000 0
1.700000 0.200000 0
1.800000 0.200000 0
1.900000 0.200000 0
2.000000 0.200000 0
2.100000 0.200000 0
2.200000 0.200000 0
2.300000 0.200000 0
2.400000 0.200000 0
2.500000 0.200000 0
2.600000 0.200000 0
2.700000 0.200000 0
2.800000 0.200000 0
2.900000 0.200000 0
3.000000 0.200000 0
3.100000 0.200000 0
3.200000 0.200000 0
3.300000 0.200000 0
3.400000 0.200000 0
3.500000 0.200000 0
3.600000 0.200000 0
3.700000 0.200000 0
3.800000 0.200000 0
3.900000 0.200000 0
4.000000 0.200000 0
4.100000 0.200000 0
4.200000 0.200000 0
4.300000 0.200000 0
4.400000 0.200000 0
4.500000 0.200000 0
4.600000 0.200000 0
4.700000 0.200000 0
4.800000 0.200000 0
4.900000 0.200000 0
5.000000 0.200000 0
5.100000 0.200000 0
5.200000 0.200000 0
5.300000 0.200000 0
5.400000 0.200000 0
5.500000 0.200000 0
5.600000 0.200000 0
5.700000 0.200000 0
5.800000 0.200000 0
5.900000 0.200000 0
6.000000 0.200000 0
6.100000 0.200000 0
6.200000 0.200000 0
6.300000 0.200000 0
6.400000 0.200000 0
6.500000 0.200000 0
6.600000 0.200000 0
6.700000 0.200000 0
6.800000 0.200000 0
6.900000 0.200000 0
7.000000 0.200000 0
7.100000 0.200000 0
7.200000 0.200000 0
7.300000 0.200000 0
7.400000 0.200000 0
7.500000 0.200000 0
7.600000 0.200000 0
7.700000 0.200000 0
7.800000 0.200000 0
7.900000 0.200000 0
8.000000 0.200000 0
8.100000 0.200000 0
8.200000 0.200000 0
8.300000 0.200000 0
8.400000 0.200000 0
8.500000 0.200000 0
8.600000 0.200000 0
8.700000 0.200000 0
8.800000 0.200000 0
8.900000 0.200000 0
9.000000 0.200000 0
9.100000 0.200000 0
9.200000 0.200000 0
9.300000 0.200000 0
9.400000 0.200000 0
9.500000 0.200000 0
9.600000 0.200000 0
9.700000 0.200000 0
9.800000 0.200000 0
9.900000 0.200000 0
10.000000 0.200000 0
0.000000 0.300000 0
0.100000 0.300000 0
0.200000 0.300000 0
0.300000 0.300000 0
0.400000 0.300000 0
0.500000 0.300000 0
0.600000 0.300000 0
0.700000 0.300000 0
0.800000 0.300000 0
0.900000 0.300000 0
1.000000 0.300000 0
1.100000 0.300000 0
1.200000 0.300000 0
1.300000 0.300000 0
1.400000 0.300000 0
1.500000 0.300000 0
1.600000 0.300000 0
1.700000 0.300000 0
1.800000 0.300000 0
1.900000 0.300000 0
2.000000 0.300000 0
2.100000 0.300000 0
2.200000 0.300000 0
2.300000 0.300000 0
2.400000 0.300000 0
2.500000 0.300000 0
2.600000 0.300000 0
2.700000 0.300000 0
2.800000 0.300000 0
2.900000 0.300000 0
3.000000 0.300000 0
3.100000 0.300000 0
3.200000 0.300000 0
3.300000 0.300000 0
3.400000 0.300000 0
3.500000 0.300000 0
3.600000 0.300000 0
3.700000 0.300000 0
3.800000 0.300000 0
3.900000 0.300000 0
4.000000 0.300000 0
4.100000 0.300000 0
4.200000 0.300000 0
4.300000 0.300000 0
4.400000 0.300000 0
4.500000 0.300000 0
4.600000 0.300000 0
4.700000 0.300000 0
4.800000 0.300000 0
4.900000 0.300000 0
5.000000 0.300000 0
5.100000 0.300000 0
5.200000 0.300000 0
5.300000 0.300000 0
5.400000 0.300000 0
5.500000 0.300000 0
5.600000 0.300000 0
5.700000 0.300000 0
5.800000 0.300000 0
5.900000 0.300000 0
6.000000 0.300000 0
6.100000 0.300000 0
6.200000 0.300000 0
6.300000 0.300000 0
6.400000 0.300000 0
6.500000 0.300000 0
6.600000 0.300000 0
6.700000 0.300000 0
6.800000 0.300000 0
6.900000 0.300000 0
7.000000 0.300000 0
7.100000 0.300000 0
7.200000 0.300000 0
7.300000 0.300000 0
7.400000 0.300000 0
7.500000 0.300000 0
7.600000 0.300000 0
7.700000 0.300000 0
7.800000 0.300000 0
7.900000 0.300000 0
8.000000 0.300000 0
8.100000 0.300000 0
8.200000 0.300000 0
8.300000 0.300000 0
8.400000 0.300000 0
8.500000 0.300000 0
8.600000 0.300000 0
8.700000 0.300000 0
8.800000 0.300000 0
8.900000 0.300000 0
9.000000 0.300000 0
9.100000 0.300000 0
9.200000 0.300000 0
9.300000 0.300000 0
9.400000 0.300000 0
9.500000 0.300000 0
9.600000 0.300000 0
9.700000 0.300000 0
9.800000 0.300000 0
9.900000 0.300000 0
10.000000 0.300000 0
0.000000 0.400000 0
0.100000 0.400000 0
0.200000 0.400000 0
0.300000 0.400000 0
0.400000 0.400000 0
0.500000 0.400000 0
0.600000 0.400000 0
0.700000 0.400000 0
0.800000 0.400000 0
0.900000 0.400000 0
1.000000 0.400000 0
1.100000 0.400000 0
1.200000 0.400000 0
1.300000 0.400000 0
1.400000 0.400000 0
1.500000 0.400000 0
1.600000 0.400000 0
1.700000 0.400000 0
1.800000 0.400000 0
1.900000 0.400000 0
2.000000 0.400000 0
2.100000 0.400000 0
2.200000 0.400000 0
2.300000 0.400000 0
2.400000 0.400000 0
2.500000 0.400000 0
2.600000 0.400000 0
2.700000 0.400000 0
2.800000 0.400000 0
2.900000 0.400000 0
3.000000 0.400000 0
3.100000 0.400000 0
3.200000 0.400000 0
3.300000 0.400000 0
3.400000 0.400000 0
3.500000 0.400000 0
3.600000 0.400000 0
3.700000 0.400000 0
3.800000 0.400000 0
3.900000 0.400000 0
4.000000 0.400000 0
4.100000 0.400000 0
4.200000 0.400000 0
4.300000 0.400000 0
4.400000 0.400000 0
4.500000 0.400000 0
4.600000 0.400000 0
4.700000 0.400000 0
4.800000 0.400000 0
4.900000 0.400000 0
5.000000 0.400000 0
5.100000 0.400000 0
5.200000 0.400000 0
5.300000 0.400000 0
5.400000 0.400000 0
5.500000 0.400000 0
5.600000 0.400000 0
5.700000 0.400000 0
5.800000 0.400000 0
5.900000 0.400000 0
6.000000 0.400000 0
6.100000 0.400000 0
6.200000 0.400000 0
6.300000 0.400000 0
6.400000 0.400000 0
6.500000 0.400000 0
6.600000 0.400000 0
6.700000 0.400000 0
6.800000 0.400000 0
6.900000 0.400000 0
7.000000 0.400000 0
7.100000 0.400000 0
7.200000 0.400000 0
7.300000 0.400000 0
7.400000 0.400000 0
7.500000 0.400000 0
7.600000 0.400000 0
7.700000 0.400000 0
7.800000 0.400000 0
7.900000 0.400000 0
8.000000 0.400000 0
8.100000 0.400000 0
8.200000 0.400000 0
8.300000 0.400000 0
8.400000 0.400000 0
8.500000 0.400000 0
8.600000 0.400000 0
[...]
POINT_DATA 2121 

VECTORS velocity float
0.500000 0.000000 0
0.000004 0.000000 0
0.000016 0.000000 0
0.000036 0.000000 0
0.000060 0.000000 0
0.000088 0.000000 0
0.000123 0.000000 0
0.000166 0.000000 0
0.000231 0.000000 0
0.000254 0.000000 0
0.000326 0.000000 0
0.000386 0.000000 0
0.000449 0.000000 0
0.000514 0.000000 0
0.000586 0.000000 0
0.000669 0.000000 0
0.000763 0.000000 0
0.000868 0.000000 0
0.000984 0.000000 0
0.001109 0.000000 0
0.001233 0.000000 0
0.001342 0.000000 0
0.001411 0.000000 0
0.001398 0.000000 0
0.001255 0.000000 0
0.000944 0.000000 0
0.000447 0.000000 0
-0.000235 0.000000 0
-0.001106 0.000000 0
-0.002191 0.000000 0
-0.003491 0.000000 0
-0.004899 0.000000 0
-0.006188 0.000000 0
-0.007096 0.000000 0
-0.007129 0.000000 0
-0.005473 0.000000 0
-0.002790 0.000000 0
0.000025 0.000000 0
0.002501 0.000000 0
0.004423 0.000000 0
0.006077 0.000000 0
0.006847 0.000000 0
0.006555 0.000000 0
0.009222 0.000000 0
0.018789 0.000000 0
0.006463 0.000000 0
-0.002935 0.000000 0
0.008346 0.000000 0
0.021268 0.000000 0
0.017907 0.000000 0
0.009456 0.000000 0
0.002747 0.000000 0
-0.001945 0.000000 0
-0.005938 0.000000 0
-0.010067 0.000000 0
-0.014060 0.000000 0
-0.016341 0.000000 0
-0.016115 0.000000 0
-0.013815 0.000000 0
-0.012662 0.000000 0
-0.014802 0.000000 0
-0.017425 0.000000 0
-0.018971 0.000000 0
-0.019675 0.000000 0
-0.019746 0.000000 0
-0.019168 0.000000 0
-0.016301 0.000000 0
-0.009513 0.000000 0
-0.003760 0.000000 0
0.000385 0.000000 0
0.006608 0.000000 0
0.011821 0.000000 0
0.018280 0.000000 0
0.026534 0.000000 0
0.037198 0.000000 0
0.041921 0.000000 0
0.023882 0.000000 0
0.002946 0.000000 0
-0.006806 0.000000 0
-0.007900 0.000000 0
-0.004701 0.000000 0
-0.002234 0.000000 0
-0.001398 0.000000 0
0.000106 0.000000 0
0.000372 0.000000 0
-0.000142 0.000000 0
-0.000411 0.000000 0
-0.000322 0.000000 0
-0.000245 0.000000 0
-0.000235 0.000000 0
-0.000240 0.000000 0
-0.000250 0.000000 0
-0.000271 0.000000 0
-0.000304 0.000000 0
-0.000331 0.000000 0
-0.000343 0.000000 0
-0.000348 0.000000 0
-0.000349 0.000000 0
-0.000374 0.000000 0
-0.000412 0.000000 0
-0.000418 0.000000 0
1.000000 0.000302 0
1.000050 0.000645 0
1.000224 0.000641 0
1.000570 0.000505 0
1.001132 0.000283 0
1.001961 -0.000015 0
1.003123 -0.000403 0
1.004706 -0.000921 0
1.006828 -0.001603 0
1.009637 -0.002408 0
1.013322 -0.003419 0
1.018161 -0.004814 0
1.024530 -0.006693 0
1.032911 -0.009142 0
1.043904 -0.012255 0
1.058230 -0.016127 0
1.076725 -0.020818 0
1.100280 -0.026260 0
1.129717 -0.032152 0
1.165515 -0.037827 0
1.207342 -0.042095 0
1.253265 -0.043304 0
1.299345 -0.039667 0
1.338418 -0.030949 0
1.365329 -0.019158 0
1.378509 -0.006907 0
1.379123 0.003754 0
1.369830 0.011494 0
1.354012 0.015292 0
1.335927 0.014045 0
1.321452 0.006955 0
1.317544 -0.005389 0
1.329567 -0.020739 0
1.359546 -0.035696 0
1.405824 -0.044600 0
1.457222 -0.039509 0
1.495290 -0.020105 0
1.508988 0.004809 0
1.494423 0.029168 0
1.455237 0.050958 0
1.397184 0.068559 0
1.325184 0.077741 0
1.245082 0.083928 0
1.153417 0.119924 0
1.052396 0.152067 0
0.997993 0.095296 0
0.974584 0.034720 0
0.779783 0.104381 0
0.511603 0.197080 0
0.301976 0.178280 0
0.193894 0.094749 0
0.165018 0.019495 0
0.185190 -0.034460 0
0.236104 -0.076253 0
0.307057 -0.109816 0
0.402850 -0.137771 0
0.526685 -0.151953 0
0.670698 -0.144350 0
0.818509 -0.120400 0
0.952348 -0.108079 0
1.064166 -0.117898 0
1.184225 -0.130533 0
1.312570 -0.138378 0
1.446139 -0.140737 0
1.580411 -0.137971 0
1.706858 -0.128516 0
1.815656 -0.104742 0
1.895252 -0.063295 0
1.938196 -0.021141 0
1.946903 0.013404 0
1.923281 0.051969 0
1.862727 0.095781 0
1.758682 0.143923 0
1.610123 0.204340 0
1.419157 0.269372 0
1.221592 0.289945 0
1.079324 0.198629 0
1.020752 0.053264 0
1.011248 -0.033572 0
1.009114 -0.053830 0
0.995898 -0.038552 0
0.972038 -0.019156 0
0.945396 -0.009720 0
0.920740 -0.002688 0
0.906340 0.001119 0
0.903612 -0.000571 0
0.907117 -0.002206 0
0.911009 -0.002092 0
0.912777 -0.001401 0
0.913778 -0.001009 0
0.914676 -0.000779 0
0.915684 -0.000612 0
0.916852 -0.000543 0
0.918030 -0.000584 0
0.918924 -0.000569 0
0.919447 -0.000456 0
0.919794 -0.000255 0
0.920110 -0.000069 0
0.920878 -0.000135 0
0.921772 -0.000530 0
0.922518 -0.000826 0
1.000000 -0.000056 0
1.000605 -0.000233 0
1.001553 -0.000526 0
1.002769 -0.000914 0
1.004236 -0.001397 0
1.005970 -0.001997 0
1.008018 -0.002751 0
1.010441 -0.003711 0
1.013315 -0.004938 0
1.016765 -0.006500 0
1.021029 -0.008529 0
1.026327 -0.011213 0
1.032959 -0.014755 0
1.041348 -0.019379 0
1.052063 -0.025323 0
1.065845 -0.032824 0
1.083600 -0.042052 0
1.106414 -0.052995 0
1.135533 -0.065237 0
1.172153 -0.077624 0
1.217061 -0.087748 0
1.269004 -0.092001 0
1.325296 -0.085150 0
1.372086 -0.065981 0
1.401924 -0.040086 0
1.414215 -0.013788 0
1.411763 0.008685 0
1.398238 0.025117 0
1.376795 0.033910 0
1.350748 0.032567 0
1.326662 0.018390 0
1.315146 -0.008108 0
1.324842 -0.041994 0
1.357867 -0.076249 0
1.413535 -0.097668 0
1.481440 -0.089459 0
1.535913 -0.051759 0
1.561338 0.000875 0
1.551921 0.053759 0
1.513216 0.097246 0
1.457101 0.130060 0
1.388485 0.152110 0
1.304105 0.171775 0
1.210250 0.192694 0
1.147594 0.155432 0
1.097424 0.077819 0
0.944876 0.218218 0
0.661706 0.462989 0
0.426312 0.477814 0
0.319844 0.317717 0
0.304411 0.136966 0
0.322293 0.008712 0
0.358261 -0.071079 0
0.403062 -0.121860 0
0.440045 -0.166739 0
0.465099 -0.219621 0
0.504095 -0.267840 0
0.583956 -0.291817 0
0.707768 -0.281643 0
0.857652 -0.245650 0
0.990603 -0.231870 0
1.099252 -0.248397 0
1.209987 -0.261907 0
1.322940 -0.267834 0
1.436136 -0.260711 0
1.542750 -0.235237 0
1.632663 -0.188387 0
1.700618 -0.122534 0
1.739796 -0.051644 0
1.748467 0.014923 0
1.732415 0.084183 0
1.690733 0.164605 0
1.618895 0.252610 0
1.523416 0.339532 0
1.430442 0.388538 0
1.377076 0.339839 0
1.361733 0.200847 0
1.321736 0.068083 0
1.258598 0.011644 0
1.195342 0.015356 0
1.140843 0.037083 0
1.097329 0.050507 0
1.060790 0.051304 0
1.030015 0.039062 0
1.008652 0.017134 0
0.992171 -0.000771 0
0.976860 -0.007392 0
0.965275 -0.005654 0
0.960119 -0.002763 0
0.959398 -0.001895 0
0.960662 -0.001901 0
0.962335 -0.002171 0
0.963862 -0.002342 0
0.965068 -0.002067 0
0.965999 -0.001412 0
0.966955 -0.000866 0
0.968040 -0.000659 0
0.969391 -0.001079 0
0.970787 -0.001657 0
0.971760 -0.001636 0
0.972358 -0.001488 0
1.000000 -0.000307 0
1.000439 -0.000915 0
1.001221 -0.001527 0
1.002274 -0.002181 0
1.003569 -0.002922 0
1.005108 -0.003801 0
1.006918 -0.004877 0
1.009041 -0.006223 0
1.011540 -0.007931 0
1.014515 -0.010125 0
1.018117 -0.012984 0
1.022531 -0.016748 0
1.028014 -0.021716 0
1.034944 -0.028249 0
1.043857 -0.036754 0
1.055497 -0.047667 0
1.070851 -0.061389 0
1.091230 -0.078193 0
1.118506 -0.097893 0
1.155007 -0.119356 0
1.203889 -0.138946 0
1.264916 -0.151538 0
1.345236 -0.142748 0
1.406874 -0.107576 0
1.439789 -0.061286 0
1.447730 -0.016744 0
1.437699 0.019733 0
1.415842 0.046465 0
1.384544 0.062785 0
1.343137 0.064180 0
1.298269 0.042559 0
1.270298 -0.003566 0
1.275698 -0.063457 0
1.311572 -0.124388 0
1.375062 -0.168170 0
1.469316 -0.161884 0
1.550682 -0.100001 0
1.595424 -0.011196 0
1.596149 0.077293 0
1.554116 0.145781 0
1.486367 0.193293 0
1.410986 0.230739 0
1.332933 0.262166 0
1.257465 0.276438 0
1.181217 0.264896 0
1.031901 0.298017 0
0.774671 0.470440 0
0.599817 0.622948 0
0.546254 0.538945 0
0.592318 0.300183 0
0.633636 0.092302 0
0.605919 -0.034351 0
0.562780 -0.115226 0
0.555293 -0.158034 0
0.579494 -0.171850 0
0.597730 -0.201818 0
0.603736 -0.270807 0
0.612927 -0.348020 0
0.656229 -0.394093 0
0.748703 -0.390911 0
0.878687 -0.359495 0
0.992892 -0.349915 0
1.086876 -0.362064 0
1.177967 -0.366884 0
1.267291 -0.357778 0
1.352066 -0.325040 0
1.419979 -0.262607 0
1.467717 -0.170425 0
1.495634 -0.068987 0
1.502632 0.020787 0
1.489859 0.109706 0
1.460671 0.209303 0
1.419959 0.311243 0
1.375518 0.392795 0
1.348505 0.415714 0
1.337289 0.358657 0
1.303536 0.253971 0
1.226420 0.156401 0
1.136015 0.092824 0
1.065773 0.063927 0
1.030351 0.059463 0
1.016227 0.060899 0
1.010503 0.057596 0
1.007556 0.049452 0
0.999551 0.038965 0
0.985160 0.031223 0
0.969092 0.024692 0
0.957462 0.014651 0
0.953603 0.004479 0
0.955861 -0.001550 0
0.959166 -0.003715 0
0.961139 -0.003811 0
0.962233 -0.003274 0
0.963055 -0.002718 0
0.964151 -0.002454 0
0.965756 -0.002496 0
0.967626 -0.002689 0
0.969496 -0.002814 0
0.970696 -0.002503 0
0.971323 -0.002100 0
0.971908 -0.002014 0
1.000000 -0.000500 0
1.000333 -0.001462 0
1.000972 -0.002365 0
1.001851 -0.003265 0
1.002940 -0.004235 0
1.004233 -0.005350 0
1.005738 -0.006688 0
1.007478 -0.008337 0
1.009489 -0.010416 0
1.011828 -0.013080 0
1.014584 -0.016549 0
1.017874 -0.021115 0
1.021867 -0.027172 0
1.026860 -0.035225 0
1.033314 -0.045880 0
1.041943 -0.059820 0
1.053729 -0.077787 0
1.069998 -0.100653 0
1.093303 -0.129016 0
1.127172 -0.163008 0
1.178687 -0.197658 0
1.249340 -0.233348 0
1.388243 -0.227107 0
1.471498 -0.160533 0
1.503231 -0.080941 0
1.500611 -0.011696 0
1.477360 0.040575 0
1.445432 0.078274 0
1.404222 0.106617 0
1.342425 0.118845 0
1.258301 0.091231 0
1.195870 0.014466 0
1.191446 -0.083267 0
1.218581 -0.175611 0
1.253852 -0.255410 0
1.361368 -0.265077 0
1.463078 -0.177865 0
1.546809 -0.044589 0
1.592016 0.095069 0
1.586890 0.207031 0
1.536855 0.273193 0
1.454383 0.305546 0
1.361096 0.325299 0
1.274893 0.344413 0
1.188805 0.380998 0
1.070993 0.484368 0
0.945456 0.650306 0
0.907758 0.691408 0
0.939840 0.485315 0
0.947861 0.230337 0
0.830821 0.123368 0
0.664920 0.079572 0
0.521729 -0.020450 0
0.425830 -0.138571 0
0.393323 -0.209173 0
0.421290 -0.243859 0
0.495921 -0.283035 0
0.572985 -0.344308 0
0.626722 -0.417416 0
0.677453 -0.468105 0
0.754657 -0.476056 0
0.851514 -0.456583 0
0.933187 -0.446980 0
1.007639 -0.448247 0
1.077894 -0.434808 0
1.137470 -0.387922 0
1.181851 -0.304035 0
1.209601 -0.198186 0
1.229812 -0.086556 0
1.238741 0.020700 0
1.228656 0.126147 0
1.203504 0.234507 0
1.173112 0.337766 0
1.150428 0.410988 0
1.141118 0.426769 0
1.130409 0.384811 0
1.102803 0.311719 0
1.062750 0.235607 0
1.024281 0.172294 0
0.994831 0.121023 0
0.978585 0.086631 0
0.975586 0.070357 0
0.978994 0.059977 0
0.984153 0.050016 0
0.987815 0.039532 0
0.989314 0.029690 0
0.990764 0.020307 0
0.990081 0.009836 0
0.984535 -0.001160 0
0.975075 -0.007455 0
0.966926 -0.007177 0
0.962484 -0.005235 0
0.960826 -0.004256 0
0.961052 -0.003984 0
0.962481 -0.004111 0
0.964573 -0.004340 0
0.966739 -0.004397 0
0.968621 -0.004146 0
0.969922 -0.003482 0
0.970809 -0.002846 0
0.971494 -0.002656 0
1.000000 -0.000646 0
1.000228 -0.001895 0
1.000751 -0.003050 0
1.001456 -0.004153 0
1.002322 -0.005308 0
1.003341 -0.006603 0
1.004506 -0.008126 0
1.005812 -0.009977 0
1.007266 -0.012285 0
1.008875 -0.015224 0
1.010664 -0.019034 0
1.012671 -0.024035 0
1.014888 -0.030706 0
1.017503 -0.039699 0
1.020817 -0.051842 0
1.025491 -0.068086 0
1.032383 -0.089447 0
1.042145 -0.117770 0
1.057873 -0.155070 0
1.083728 -0.204742 0
1.128594 -0.261115 0
1.210675 -0.361095 0
1.465480 -0.364906 0
1.544942 -0.222563 0
1.553220 -0.090398 0
1.541623 0.009130 0
1.499615 0.074914 0
1.459605 0.119604 0
1.441077 0.165794 0
1.356830 0.210103 0
1.173575 0.189116 0
0.993849 0.063291 0
1.004083 -0.086168 0
1.023882 -0.186793 0
0.841522 -0.310955 0
0.893380 -0.371108 0
1.046487 -0.285440 0
1.231339 -0.140131 0
1.344595 0.037215 0
1.408901 0.200943 0
1.445205 0.325802 0
1.432206 0.406501 0
1.374890 0.441658 0
1.293600 0.448732 0
1.206833 0.468800 0
1.130919 0.541369 0
1.104502 0.633678 0
1.146967 0.628567 0
1.159654 0.498845 0
1.021277 0.409205 0
0.813895 0.375246 0
0.687527 0.274744 0
0.595376 0.123866 0
0.473541 -0.029625 0
0.316422 -0.167307 0
0.244407 -0.304414 0
0.314064 -0.422499 0
0.454026 -0.478818 0
0.581045 -0.498559 0
0.660489 -0.518843 0
0.710266 -0.533554 0
0.761054 -0.528442 0
0.811933 -0.518185 0
0.844703 -0.511588 0
0.868266 -0.487607 0
0.890068 -0.428995 0
0.912951 -0.334735 0
0.931016 -0.218384 0
0.939977 -0.098125 0
0.938395 0.021946 0
0.926966 0.144946 0
0.910327 0.264849 0
0.896449 0.364321 0
0.892748 0.424792 0
0.899513 0.435736 0
0.910962 0.396974 0
0.925473 0.321632 0
0.941983 0.234926 0
0.958241 0.160746 0
0.970875 0.109625 0
0.974038 0.078710 0
0.975117 0.060492 0
0.976402 0.049032 0
0.977639 0.040632 0
0.977977 0.033806 0
0.977171 0.028277 0
0.975810 0.023928 0
0.973339 0.020882 0
0.968371 0.019486 0
0.960536 0.016061 0
0.954429 0.008878 0
0.952224 0.002290 0
0.952866 -0.001839 0
0.955321 -0.004371 0
0.958742 -0.005974 0
0.962371 -0.006753 0
0.965492 -0.006735 0
0.967964 -0.005995 0
0.969441 -0.004689 0
0.970663 -0.003670 0
0.971484 -0.003385 0
1.000000 -0.000735 0
1.000049 -0.002222 0
1.000543 -0.003598 0
1.001071 -0.004840 0
1.001700 -0.006125 0
1.002441 -0.007539 0
1.003255 -0.009163 0
1.004110 -0.011103 0
1.004997 -0.013484 0
1.005852 -0.016483 0
1.006651 -0.020349 0
1.007467 -0.025343 0
1.007842 -0.032010 0
1.008016 -0.041159 0
1.007942 -0.053872 0
1.008135 -0.071390 0
1.008718 -0.094445 0
1.011078 -0.126147 0
1.011307 -0.170603 0
1.027953 -0.233732 0
1.037666 -0.324608 0
1.146422 -0.570236 0
1.490581 -0.561374 0
1.427950 -0.248272 0
1.353642 -0.077621 0
1.338391 0.041910 0
1.319179 0.122594 0
1.215212 0.136813 0
1.267725 0.209394 0
1.348403 0.386348 0
1.206407 0.454213 0
1.007647 0.183959 0
0.631562 -0.113298 0
0.219953 -0.013048 0
0.065212 -0.124906 0
0.018973 -0.470040 0
0.266090 -0.515822 0
0.583052 -0.342694 0
0.867812 -0.082490 0
1.064473 0.106423 0
1.174423 0.249890 0
1.239850 0.375864 0
1.283463 0.463908 0
1.283112 0.512472 0
1.242676 0.543682 0
1.190585 0.586702 0
1.162763 0.634260 0
1.159194 0.636259 0
1.120101 0.611008 0
1.009741 0.576099 0
0.953824 0.457121 0
0.989982 0.298094 0
0.994581 0.193539 0
0.818509 0.140386 0
0.619631 0.019964 0
0.520851 -0.241498 0
0.516783 -0.492652 0
0.569716 -0.611287 0
0.646913 -0.623876 0
0.711401 -0.597323 0
0.741698 -0.576619 0
0.754380 -0.558247 0
0.766881 -0.530626 0
0.766354 -0.504577 0
0.745346 -0.480170 0
0.716872 -0.432605 0
0.694715 -0.344981 0
0.684086 -0.225210 0
0.677952 -0.093933 0
0.671103 0.033714 0
0.667093 0.154218 0
0.670971 0.265027 0
0.685228 0.355347 0
0.711903 0.407927 0
0.754028 0.408557 0
0.809981 0.358854 0
0.867521 0.280700 0
0.910982 0.202841 0
0.932817 0.143404 0
0.935827 0.105229 0
0.927735 0.082391 0
0.915177 0.067995 0
0.902800 0.057457 0
0.893147 0.048444 0
0.887309 0.040002 0
0.885592 0.031859 0
0.887799 0.024142 0
0.893296 0.017277 0
0.901654 0.011645 0
0.912835 0.006489 0
0.923523 0.001137 0
0.932566 -0.003671 0
0.940845 -0.007351 0
0.948518 -0.009858 0
0.955228 -0.011159 0
0.960553 -0.011087 0
0.964451 -0.009989 0
0.967392 -0.008094 0
0.969430 -0.006179 0
0.971967 -0.004888 0
0.973052 -0.004311 0
1.000000 -0.000703 0
0.999929 -0.002449 0
1.000281 -0.004077 0
1.000642 -0.005316 0
1.001063 -0.006684 0
1.001553 -0.008164 0
1.002036 -0.009800 0
1.002440 -0.011725 0
1.002835 -0.014033 0
1.003005 -0.016883 0
1.002845 -0.020654 0
1.002513 -0.025232 0
1.001281 -0.031261 0
1.001916 -0.039805 0
0.996033 -0.051966 0
0.998038 -0.068867 0
0.983845 -0.092396 0
0.989091 -0.120364 0
0.959776 -0.171949 0
0.975132 -0.231105 0
0.915646 -0.379588 0
1.021517 -0.814013 0
0.733695 -0.560812 0
0.002313 0.000000 0
0.002364 0.000000 0
0.562365 0.044431 0
0.619581 0.198095 0
0.668824 0.171059 0
0.636832 0.032603 0
0.602723 0.271421 0
0.616186 0.529873 0
0.315790 0.638137 0
-0.017838 0.701528 0
-0.393496 0.379559 0
-0.336474 -0.109974 0
-0.483362 -0.571985 0
-0.213355 -0.849517 0
-0.027877 -0.741852 0
0.345967 -0.444204 0
0.688893 -0.105665 0
0.904117 0.150427 0
1.034818 0.297464 0
1.111706 0.398399 0
1.171740 0.489522 0
1.203199 0.561330 0
1.209704 0.621285 0
1.213708 0.665071 0
1.228838 0.671231 0
1.236554 0.648300 0
1.250038 0.575485 0
1.254468 0.395009 0
1.156890 0.233990 0
0.956544 0.295342 0
0.783507 0.345328 0
0.749483 0.130353 0
0.779772 -0.201563 0
0.817812 -0.471362 0
0.848436 -0.608946 0
0.848199 -0.640240 0
0.835071 -0.613625 0
0.817480 -0.576531 0
0.787137 -0.553622 0
0.752343 -0.530156 0
0.721118 -0.490051 0
0.683932 -0.438122 0
0.636096 -0.378361 0
0.588716 -0.301947 0
0.553969 -0.201618 0
0.534974 -0.085139 0
0.528095 0.032808 0
0.531299 0.145081 0
0.547119 0.246717 0
0.581608 0.323392 0
0.640497 0.355995 0
0.720987 0.337661 0
0.806020 0.283482 0
0.872566 0.220633 0
0.907201 0.169632 0
0.911942 0.135904 0
0.898186 0.114710 0
0.877922 0.099362 0
0.859297 0.085430 0
0.846417 0.071064 0
0.840492 0.056125 0
0.841036 0.041364 0
0.846737 0.027789 0
0.856124 0.016226 0
0.867969 0.007029 0
0.881488 -0.000051 0
0.896180 -0.005805 0
0.910816 -0.010851 0
0.924374 -0.015030 0
0.936319 -0.017789 0
0.946246 -0.018752 0
0.954097 -0.018007 0
0.960143 -0.015973 0
0.965074 -0.013572 0
0.969407 -0.010972 0
0.973441 -0.009263 0
0.977452 -0.007290 0
0.978719 -0.005573 0
1.000000 -0.000672 0
1.000023 -0.002515 0
1.000009 -0.004317 0
1.000168 -0.005628 0
1.000416 -0.007042 0
1.000734 -0.008518 0
1.000982 -0.010056 0
1.000896 -0.011908 0
1.000970 -0.014055 0
1.000130 -0.016499 0
1.000579 -0.019863 0
0.998163 -0.023786 0
0.997764 -0.031419 0
0.992778 -0.035917 0
0.992507 -0.050000 0
0.982137 -0.059208 0
0.976938 -0.085503 0
0.954789 -0.102084 0
0.942028 -0.156649 0
0.893522 -0.189607 0
0.843138 -0.370998 0
0.697442 -0.473913 0
0.000000 -0.003241 0
-0.636835 0.175766 0
-0.568683 0.000000 0
0.000000 0.000000 0
0.050216 0.021922 0
0.201514 0.119563 0
-0.051218 0.275496 0
0.086626 0.406995 0
-0.066040 0.741147 0
-0.407894 0.817984 0
-0.518179 0.595988 0
-0.323122 0.305589 0
-0.261755 -0.035038 0
-0.100154 -0.593158 0
-0.152610 -0.971306 0
-0.158761 -0.902015 0
0.016507 -0.799258 0
0.336040 -0.451726 0
0.638111 -0.096032 0
0.858238 0.168278 0
0.981772 0.326988 0
1.055975 0.420982 0
1.119504 0.505720 0
1.175908 0.576195 0
1.224973 0.615129 0
1.269262 0.613415 0
1.296266 0.589811 0
1.301150 0.558188 0
1.227548 0.550272 0
1.008840 0.596021 0
0.793362 0.566924 0
0.794409 0.347449 0
0.889126 0.023702 0
0.943253 -0.309825 0
0.896836 -0.561314 0
0.863458 -0.641672 0
0.855318 -0.610508 0
0.854572 -0.566601 0
0.846926 -0.528682 0
0.828971 -0.493107 0
0.798739 -0.464604 0
0.757787 -0.436164 0
0.709294 -0.395146 0
0.654820 -0.337386 0
0.598949 -0.262852 0
0.550497 -0.171466 0
0.517803 -0.068056 0
0.503173 0.037392 0
0.507547 0.135197 0
0.536263 0.214720 0
0.594770 0.261971 0
0.678101 0.268551 0
0.766052 0.243037 0
0.833121 0.207277 0
0.865347 0.179522 0
0.866297 0.163467 0
0.849424 0.152422 0
0.828068 0.139251 0
0.810674 0.121281 0
0.800808 0.099502 0
0.798882 0.076265 0
0.803743 0.053828 0
0.813766 0.033759 0
0.827390 0.016772 0
0.843404 0.002912 0
0.861049 -0.008085 0
0.879630 -0.016563 0
0.898048 -0.022837 0
0.914881 -0.027055 0
0.929169 -0.029172 0
0.940761 -0.029222 0
0.950358 -0.027633 0
0.959025 -0.025054 0
0.967111 -0.022063 0
0.974104 -0.019250 0
0.979730 -0.016459 0
0.984436 -0.014223 0
0.987160 -0.010164 0
0.988112 -0.006843 0
1.000000 -0.000735 0
1.000013 -0.002470 0
0.999872 -0.004228 0
0.999941 -0.005729 0
0.999838 -0.007256 0
1.000146 -0.008736 0
0.999749 -0.009969 0
0.999791 -0.011719 0
0.999264 -0.013274 0
0.998940 -0.016500 0
0.997350 -0.018694 0
0.995830 -0.022423 0
0.993469 -0.025882 0
0.987661 -0.034555 0
0.985826 -0.041332 0
0.970061 -0.053304 0
0.969229 -0.065053 0
0.930812 -0.085460 0
0.928392 -0.110688 0
0.834411 -0.132222 0
0.817808 -0.183515 0
0.486001 -0.051054 0
0.350570 0.056454 0
0.000000 0.000000 0
0.000000 0.000000 0
0.000000 0.000000 0
0.000000 0.000000 0
0.019556 0.270128 0
0.112193 0.147491 0
0.100653 0.286244 0
-0.001874 1.024394 0
-0.102308 1.090276 0
-0.393082 0.616756 0
-0.100498 0.123136 0
-0.006617 -0.332942 0
0.270991 -0.681128 0
0.104024 -0.790908 0
0.134228 -0.910967 0
0.099987 -0.939004 0
0.206889 -0.727268 0
0.439490 -0.371768 0
0.682546 -0.046195 0
0.877602 0.200663 0
0.981472 0.351792 0
1.047880 0.441399 0
1.118985 0.515819 0
1.182288 0.571720 0
1.223544 0.599940 0
1.230435 0.616415 0
1.204558 0.644205 0
1.144122 0.687322 0
1.103295 0.668179 0
1.150425 0.509776 0
1.210341 0.249566 0
1.204349 -0.018489 0
1.128102 -0.209270 0
0.928561 -0.391563 0
0.689576 -0.567426 0
0.598154 -0.631352 0