# vtk DataFile Version 2.0
generated by CFD-lab course output (written by Tobias Neckel) 
ASCII

DATASET STRUCTURED_GRID
DIMENSIONS  101 21 1 
POINTS 2121 float

0.000000 0.000000 0
0.100000 0.000000 0
0.200000 0.000000 0
0.300000 0.000000 0
0.400000 0.000000 0
0.500000 0.000000 0
0.600000 0.000000 0
0.700000 0.000000 0
0.800000 0.000000 0
0.900000 0.000000 0
1.000000 0.000000 0
1.100000 0.000000 0
1.200000 0.000000 0
1.300000 0.000000 0
1.400000 0.000000 0
1.500000 0.000000 0
1.600000 0.000000 0
1.700000 0.000000 0
1.800000 0.000000 0
1.900000 0.000000 0
2.000000 0.000000 0
2.100000 0.000000 0
2.200000 0.000000 0
2.300000 0.000000 0
2.400000 0.000000 0
2.500000 0.000000 0
2.600000 0.000000 0
2.700000 0.000000 0
2.800000 0.000000 0
2.900000 0.000000 0
3.000000 0.000000 0
3.100000 0.000000 0
3.200000 0.000000 0
3.300000 0.000000 0
3.400000 0.000000 0
3.500000 0.000000 0
3.600000 0.000000 0
3.700000 0.000000 0
3.800000 0.000000 0
3.900000 0.000000 0
4.000000 0.000000 0
4.100000 0.000000 0
4.200000 0.000000 0
4.300000 0.000000 0
4.400000 0.000000 0
4.500000 0.000000 0
4.600000 0.000000 0
4.700000 0.000000 0
4.800000 0.000000 0
4.900000 0.000000 0
5.000000 0.000000 0
5.100000 0.000000 0
5.200000 0.000000 0
5.300000 0.000000 0
5.400000 0.000000 0
5.500000 0.000000 0
5.600000 0.000000 0
5.700000 0.000000 0
5.800000 0.000000 0
5.900000 0.000000 0
6.000000 0.000000 0
6.100000 0.000000 0
6.200000 0.000000 0
6.300000 0.000000 0
6.400000 0.000000 0
6.500000 0.000000 0
6.600000 0.000000 0
6.700000 0.000000 0
6.800000 0.000000 0
6.900000 0.000000 0
7.000000 0.000000 0
7.100000 0.000000 0
7.200000 0.000000 0
7.300000 0.000000 0
7.400000 0.000000 0
7.500000 0.000000 0
7.600000 0.000000 0
7.700000 0.000000 0
7.800000 0.000000 0
7.900000 0.000000 0
8.000000 0.000000 0
8.100000 0.000000 0
8.200000 0.000000 0
8.300000 0.000000 0
8.400000 0.000000 0
8.500000 0.000000 0
8.600000 0.000000 0
8.700000 0.000000 0
8.800000 0.000000 0
8.900000 0.000000 0
9.000000 0.000000 0
9.100000 0.000000 0
9.200000 0.000000 0
9.300000 0.000000 0
9.400000 0.000000 0
9.500000 0.000000 0
9.600000 0.000000 0
9.700000 0.000000 0
9.800000 0.000000 0
9.900000 0.000000 0
10.000000 0.000000 0
0.000000 0.100000 0
0.100000 0.100000 0
0.200000 0.100000 0
0.300000 0.100000 0
0.400000 0.100000 0
0.500000 0.100000 0
0.600000 0.100000 0
0.700000 0.100000 0
0.800000 0.100000 0
0.900000 0.100000 0
1.000000 0.100000 0
1.100000 0.100000 0
1.200000 0.100000 0
1.300000 0.100000 0
1.400000 0.100000 0
1.500000 0.100000 0
1.600000 0.100000 0
1.700000 0.100000 0
1.800000 0.100000 0
1.900000 0.100000 0
2.000000 0.100000 0
2.100000 0.100000 0
2.200000 0.100000 0
2.300000 0.100000 0
2.400000 0.100000 0
2.500000 0.100000 0
2.600000 0.100000 0
2.700000 0.100000 0
2.800000 0.100000 0
2.900000 0.100000 0
3.000000 0.100000 0
3.100000 0.100000 0
3.200000 0.100000 0
3.300000 0.100000 0
3.400000 0.100000 0
3.500000 0.100000 0
3.600000 0.100000 0
3.700000 0.100000 0
3.800000 0.100000 0
3.900000 0.100000 0
4.000000 0.100000 0
4.100000 0.100000 0
4.200000 0.100000 0
4.300000 0.100000 0
4.400000 0.100000 0
4.500000 0.100000 0
4.600000 0.100000 0
4.700000 0.100000 0
4.800000 0.100000 0
4.900000 0.100000 0
5.000000 0.100000 0
5.100000 0.100000 0
5.200000 0.100000 0
5.300000 0.100000 0
5.400000 0.100000 0
5.500000 0.100000 0
5.600000 0.100000 0
5.700000 0.100000 0
5.800000 0.100000 0
5.900000 0.100000 0
6.000000 0.100000 0
6.100000 0.100000 0
6.200000 0.100000 0
6.300000 0.100000 0
6.400000 0.100000 0
6.500000 0.100000 0
6.600000 0.100000 0
6.700000 0.100000 0
6.800000 0.100000 0
6.900000 0.100000 0
7.000000 0.100000 0
7.100000 0.100000 0
7.200000 0.100000 0
7.300000 0.100000 0
7.400000 0.100000 0
7.500000 0.100000 0
7.600000 0.100000 0
7.700000 0.100000 0
7.800000 0.100000 0
7.900000 0.100000 0
8.000000 0.100000 0
8.100000 0.100000 0
8.200000 0.100000 0
8.300000 0.100000 0
8.400000 0.100000 0
8.500000 0.100000 0
8.600000 0.100000 0
8.700000 0.100000 0
8.800000 0.100000 0
8.900000 0.100000 0
9.000000 0.100000 0
9.100000 0.100000 0
9.200000 0.100000 0
9.300000 0.100000 0
9.400000 0.100000 0
9.500000 0.100000 0
9.600000 0.100000 0
9.700000 0.100000 0
9.800000 0.100000 0
9.900000 0.100000 0
10.000000 0.100000 0
0.000000 0.200000 0
0.100000 0.200000 0
0.200000 0.200000 0
0.300000 0.200000 0
0.400000 0.200000 0
0.500000 0.200000 0
0.600000 0.200000 0
0.700000 0.200000 0
0.800000 0.200000 0
0.900000 0.200000 0
1.000000 0.200000 0
1.100000 0.200000 0
1.200000 0.200000 0
1.300000 0.200000 0
1.400000 0.200000 0
1.500000 0.200000 0
1.600000 0.200000 0
1.700000 0.200000 0
1.800000 0.200000 0
1.900000 0.200000 0
2.000000 0.200000 0
2.100000 0.200000 0
2.200000 0.200000 0
2.300000 0.200000 0
2.400000 0.200000 0
2.500000 0.200000 0
2.600000 0.200000 0
2.700000 0.200000 0
2.800000 0.200000 0
2.900000 0.200000 0
3.000000 0.200000 0
3.100000 0.200000 0
3.200000 0.200000 0
3.300000 0.200000 0
3.400000 0.200000 0
3.500000 0.200000 0
3.600000 0.200000 0
3.700000 0.200000 0
3.800000 0.200000 0
3.900000 0.200000 0
4.000000 0.200000 0
4.100000 0.200000 0
4.200000 0.200000 0
4.300000 0.200000 0
4.400000 0.200000 0
4.500000 0.200000 0
4.600000 0.200000 0
4.700000 0.200000 0
4.800000 0.200000 0
4.900000 0.200000 0
5.000000 0.200000 0
5.100000 0.200000 0
5.200000 0.200000 0
5.300000 0.200000 0
5.400000 0.200000 0
5.500000 0.200000 0
5.600000 0.200000 0
5.700000 0.200000 0
5.800000 0.200000 0
5.900000 0.200000 0
6.000000 0.200000 0
6.100000 0.200000 0
6.200000 0.200000 0
6.300000 0.200000 0
6.400000 0.200000 0
6.500000 0.200000 0
6.600000 0.200000 0
6.700000 0.200000 0
6.800000 0.200000 0
6.900000 0.200000 0
7.000000 0.200000 0
7.100000 0.200000 0
7.200000 0.200000 0
7.300000 0.200000 0
7.400000 0.200000 0
7.500000 0.200000 0
7.600000 0.200000 0
7.700000 0.200000 0
7.800000 0.200000 0
7.900000 0.200000 0
8.000000 0.200000 0
8.100000 0.200000 0
8.200000 0.200000 0
8.300000 0.200000 0
8.400000 0.200000 0
8.500000 0.200000 0
8.600000 0.200000 0
8.700000 0.200000 0
8.800000 0.200000 0
8.900000 0.200000 0
9.000000 0.200000 0
9.100000 0.200000 0
9.200000 0.200000 0
9.300000 0.200000 0
9.400000 0.200000 0
9.500000 0.200000 0
9.600000 0.200000 0
9.700000 0.200000 0
9.800000 0.200000 0
9.900000 0.200000 0
10.000000 0.200000 0
0.000000 0.300000 0
0.100000 0.300000 0
0.200000 0.300000 0
0.300000 0.300000 0
0.400000 0.300000 0
0.500000 0.300000 0
0.600000 0.300000 0
0.700000 0.300000 0
0.800000 0.300000 0
0.900000 0.300000 0
1.000000 0.300000 0
1.100000 0.300000 0
1.200000 0.300000 0
1.300000 0.300000 0
1.400000 0.300000 0
1.500000 0.300000 0
1.600000 0.300000 0
1.700000 0.300000 0
1.800000 0.300000 0
1.900000 0.300000 0
2.000000 0.300000 0
2.100000 0.300000 0
2.200000 0.300000 0
2.300000 0.300000 0
2.400000 0.300000 0
2.500000 0.300000 0
2.600000 0.300000 0
2.700000 0.300000 0
2.800000 0.300000 0
2.900000 0.300000 0
3.000000 0.300000 0
3.100000 0.300000 0
3.200000 0.300000 0
3.300000 0.300000 0
3.400000 0.300000 0
3.500000 0.300000 0
3.600000 0.300000 0
3.700000 0.300000 0
3.800000 0.300000 0
3.900000 0.300000 0
4.000000 0.300000 0
4.100000 0.300000 0
4.200000 0.300000 0
4.300000 0.300000 0
4.400000 0.300000 0
4.500000 0.300000 0
4.600000 0.300000 0
4.700000 0.300000 0
4.800000 0.300000 0
4.900000 0.300000 0
5.000000 0.300000 0
5.100000 0.300000 0
5.200000 0.300000 0
5.300000 0.300000 0
5.400000 0.300000 0
5.500000 0.300000 0
5.600000 0.300000 0
5.700000 0.300000 0
5.800000 0.300000 0
5.900000 0.300000 0
6.000000 0.300000 0
6.100000 0.300000 0
6.200000 0.300000 0
6.300000 0.300000 0
6.400000 0.300000 0
6.500000 0.300000 0
6.600000 0.300000 0
6.700000 0.300000 0
6.800000 0.300000 0
6.900000 0.300000 0
7.000000 0.300000 0
7.100000 0.300000 0
7.200000 0.300000 0
7.300000 0.300000 0
7.400000 0.300000 0
7.500000 0.300000 0
7.600000 0.300000 0
7.700000 0.300000 0
7.800000 0.300000 0
7.900000 0.300000 0
8.000000 0.300000 0
8.100000 0.300000 0
8.200000 0.300000 0
8.300000 0.300000 0
8.400000 0.300000 0
8.500000 0.300000 0
8.600000 0.300000 0
8.700000 0.300000 0
8.800000 0.300000 0
8.900000 0.300000 0
9.000000 0.300000 0
9.100000 0.300000 0
9.200000 0.300000 0
9.300000 0.300000 0
9.400000 0.300000 0
9.500000 0.300000 0
9.600000 0.300000 0
9.700000 0.300000 0
9.800000 0.300000 0
9.900000 0.300000 0
10.000000 0.300000 0
0.000000 0.400000 0
0.100000 0.400000 0
0.200000 0.400000 0
0.300000 0.400000 0
0.400000 0.400000 0
0.500000 0.400000 0
0.600000 0.400000 0
0.700000 0.400000 0
0.800000 0.400000 0
0.900000 0.400000 0
1.000000 0.400000 0
1.100000 0.400000 0
1.200000 0.400000 0
1.300000 0.400000 0
1.400000 0.400000 0
1.500000 0.400000 0
1.600000 0.400000 0
1.700000 0.400000 0
1.800000 0.400000 0
1.900000 0.400000 0
2.000000 0.400000 0
2.100000 0.400000 0
2.200000 0.400000 0
2.300000 0.400000 0
2.400000 0.400000 0
2.500000 0.400000 0
2.600000 0.400000 0
2.700000 0.400000 0
2.800000 0.400000 0
2.900000 0.400000 0
3.000000 0.400000 0
3.100000 0.400000 0
3.200000 0.400000 0
3.300000 0.400000 0
3.400000 0.400000 0
3.500000 0.400000 0
3.600000 0.400000 0
3.700000 0.400000 0
3.800000 0.400000 0
3.900000 0.400000 0
4.000000 0.400000 0
4.100000 0.400000 0
4.200000 0.400000 0
4.300000 0.400000 0
4.400000 0.400000 0
4.500000 0.400000 0
4.600000 0.400000 0
4.700000 0.400000 0
4.800000 0.400000 0
4.900000 0.400000 0
5.000000 0.400000 0
5.100000 0.400000 0
5.200000 0.400000 0
5.300000 0.400000 0
5.400000 0.400000 0
5.500000 0.400000 0
5.600000 0.400000 0
5.700000 0.400000 0
5.800000 0.400000 0
5.900000 0.400000 0
6.000000 0.400000 0
6.100000 0.400000 0
6.200000 0.400000 0
6.300000 0.400000 0
6.400000 0.400000 0
6.500000 0.400000 0
6.600000 0.400000 0
6.700000 0.400000 0
6.800000 0.400000 0
6.900000 0.400000 0
7.000000 0.400000 0
7.100000 0.400000 0
7.200000 0.400000 0
7.300000 0.400000 0
7.400000 0.400000 0
7.500000 0.400000 0
7.600000 0.400000 0
7.700000 0.400000 0
7.800000 0.400000 0
7.900000 0.400000 0
8.000000 0.400000 0
8.100000 0.400000 0
8.200000 0.400000 0
8.300000 0.400000 0
8.400000 0.400000 0
8.500000 0.400000 0
8.600000 0.400000 0
[...]
POINT_DATA 2121 

VECTORS velocity float
0.500000 0.000000 0
-0.000001 0.000000 0
-0.000012 0.000000 0
-0.000028 0.000000 0
-0.000050 0.000000 0
-0.000086 0.000000 0
-0.000114 0.000000 0
-0.000132 0.000000 0
-0.000156 0.000000 0
-0.000185 0.000000 0
-0.000216 0.000000 0
-0.000245 0.000000 0
-0.000274 0.000000 0
-0.000302 0.000000 0
-0.000331 0.000000 0
-0.000360 0.000000 0
-0.000387 0.000000 0
-0.000412 0.000000 0
-0.000434 0.000000 0
-0.000452 0.000000 0
-0.000463 0.000000 0
-0.000453 0.000000 0
-0.000380 0.000000 0
-0.000147 0.000000 0
0.000232 0.000000 0
0.000750 0.000000 0
0.001389 0.000000 0
0.002062 0.000000 0
0.002662 0.000000 0
0.003123 0.000000 0
0.003425 0.000000 0
0.003548 0.000000 0
0.003445 0.000000 0
0.003072 0.000000 0
0.002401 0.000000 0
0.001506 0.000000 0
-0.001939 0.000000 0
-0.006243 0.000000 0
-0.009946 0.000000 0
-0.011056 0.000000 0
-0.012573 0.000000 0
-0.012020 0.000000 0
-0.008751 0.000000 0
-0.003871 0.000000 0
0.001383 0.000000 0
0.005736 0.000000 0
0.008403 0.000000 0
0.009978 0.000000 0
0.010674 0.000000 0
0.009755 0.000000 0
0.009948 0.000000 0
0.021620 0.000000 0
0.025448 0.000000 0
0.010586 0.000000 0
-0.004485 0.000000 0
-0.002409 0.000000 0
0.005573 0.000000 0
0.009128 0.000000 0
0.006905 0.000000 0
0.003422 0.000000 0
0.000570 0.000000 0
-0.002083 0.000000 0
-0.004786 0.000000 0
-0.007402 0.000000 0
-0.009533 0.000000 0
-0.010994 0.000000 0
-0.011871 0.000000 0
-0.012028 0.000000 0
-0.011490 0.000000 0
-0.010518 0.000000 0
-0.013656 0.000000 0
-0.016063 0.000000 0
-0.017661 0.000000 0
-0.018553 0.000000 0
-0.018001 0.000000 0
-0.016311 0.000000 0
-0.013657 0.000000 0
-0.010360 0.000000 0
-0.006667 0.000000 0
-0.002871 0.000000 0
0.001047 0.000000 0
0.005958 0.000000 0
0.012507 0.000000 0
0.019407 0.000000 0
0.026964 0.000000 0
0.035662 0.000000 0
0.039868 0.000000 0
0.011821 0.000000 0
-0.002623 0.000000 0
-0.005729 0.000000 0
-0.004987 0.000000 0
-0.003491 0.000000 0
-0.002360 0.000000 0
-0.002003 0.000000 0
-0.000823 0.000000 0
-0.000395 0.000000 0
-0.000560 0.000000 0
-0.000511 0.000000 0
-0.000351 0.000000 0
-0.000266 0.000000 0
-0.000277 0.000000 0
1.000000 0.000350 0
0.999969 0.000757 0
1.000078 0.000714 0
1.000470 0.000424 0
1.001279 -0.000080 0
1.002643 -0.000887 0
1.004694 -0.001691 0
1.007493 -0.002431 0
1.011179 -0.003410 0
1.015937 -0.004644 0
1.021999 -0.006159 0
1.029658 -0.008022 0
1.039293 -0.010334 0
1.051393 -0.013215 0
1.066580 -0.016800 0
1.085624 -0.021213 0
1.109438 -0.026537 0
1.139024 -0.032731 0
1.175329 -0.039523 0
1.218980 -0.046256 0
1.269805 -0.051714 0
1.325952 -0.054200 0
1.383868 -0.051642 0
1.436429 -0.042569 0
1.475017 -0.028371 0
1.497049 -0.011732 0
1.501465 0.005763 0
1.487547 0.022547 0
1.457686 0.037474 0
1.414065 0.050132 0
1.359215 0.060080 0
1.295879 0.066827 0
1.227361 0.069901 0
1.157405 0.068962 0
1.089437 0.062829 0
1.024370 0.060438 0
0.966868 0.037770 0
0.940632 -0.014975 0
0.965655 -0.063111 0
1.046850 -0.099479 0
1.167328 -0.125659 0
1.307775 -0.132514 0
1.439975 -0.110054 0
1.537825 -0.065915 0
1.587560 -0.016161 0
1.586862 0.028268 0
1.544732 0.060891 0
1.474982 0.082915 0
1.388130 0.094675 0
1.290335 0.094775 0
1.185003 0.116921 0
1.061170 0.205363 0
0.914229 0.245798 0
0.795582 0.135642 0
0.733449 0.000363 0
0.684945 -0.021394 0
0.580148 0.033929 0
0.464619 0.067579 0
0.374943 0.056566 0
0.332970 0.022452 0
0.323204 -0.010002 0
0.333751 -0.035061 0
0.365330 -0.054500 0
0.416005 -0.070281 0
0.480554 -0.079539 0
0.555931 -0.083554 0
0.637936 -0.084169 0
0.725356 -0.082976 0
0.816948 -0.078934 0
0.909875 -0.075197 0
0.998802 -0.086748 0
1.092117 -0.105592 0
1.200181 -0.118126 0
1.316960 -0.124343 0
1.437362 -0.122271 0
1.553030 -0.111115 0
1.654101 -0.092661 0
1.735054 -0.068880 0
1.791152 -0.041428 0
1.819289 -0.012209 0
1.817270 0.018526 0
1.782001 0.054313 0
1.711218 0.097815 0
1.608969 0.145013 0
1.471610 0.199450 0
1.298776 0.258755 0
1.121553 0.250966 0
0.999168 0.122843 0
0.951024 -0.000604 0
0.944317 -0.035407 0
0.948851 -0.033450 0
0.949454 -0.022944 0
0.942321 -0.013973 0
0.929208 -0.009524 0
0.911786 -0.004680 0
0.898634 -0.000264 0
0.895432 -0.000815 0
0.898052 -0.001426 0
0.899665 -0.000706 0
0.900573 -0.000390 0
0.900961 -0.000534 0
1.000000 0.000018 0
1.000544 -0.000097 0
1.001477 -0.000512 0
1.002785 -0.001212 0
1.004537 -0.002185 0
1.006764 -0.003427 0
1.009440 -0.004862 0
1.012896 -0.006496 0
1.017211 -0.008455 0
1.022508 -0.010832 0
1.028977 -0.013732 0
1.036876 -0.017305 0
1.046546 -0.021747 0
1.058435 -0.027299 0
1.073134 -0.034243 0
1.091414 -0.042869 0
1.114259 -0.053411 0
1.142888 -0.065903 0
1.178650 -0.079968 0
1.222914 -0.094487 0
1.276659 -0.106983 0
1.338393 -0.114074 0
1.407370 -0.110488 0
1.468616 -0.091160 0
1.511595 -0.060631 0
1.536042 -0.026459 0
1.542704 0.009491 0
1.531591 0.043768 0
1.502110 0.073471 0
1.457632 0.098460 0
1.400581 0.118175 0
1.334423 0.131844 0
1.262769 0.138464 0
1.189714 0.137914 0
1.119324 0.133025 0
1.047922 0.122560 0
0.991585 0.083729 0
0.908941 0.001203 0
0.885981 -0.106227 0
0.966323 -0.201682 0
1.085055 -0.260933 0
1.228091 -0.272655 0
1.364668 -0.230058 0
1.482583 -0.147592 0
1.562494 -0.049045 0
1.594377 0.042821 0
1.578969 0.111873 0
1.522173 0.156595 0
1.442899 0.184641 0
1.354414 0.203122 0
1.258290 0.229160 0
1.173155 0.270769 0
1.142280 0.265583 0
1.124716 0.180776 0
1.066667 0.110634 0
0.890298 0.153299 0
0.688700 0.220323 0
0.561369 0.205202 0
0.497472 0.131648 0
0.465476 0.051738 0
0.413261 -0.000782 0
0.368499 -0.042126 0
0.357398 -0.082254 0
0.376608 -0.115224 0
0.413036 -0.139924 0
0.464205 -0.157380 0
0.525174 -0.169423 0
0.598160 -0.179010 0
0.683030 -0.184516 0
0.786091 -0.181850 0
0.897545 -0.182238 0
1.002861 -0.201375 0
1.101292 -0.224839 0
1.203500 -0.237176 0
1.310114 -0.236064 0
1.412667 -0.216733 0
1.505570 -0.182017 0
1.582708 -0.137044 0
1.637108 -0.084227 0
1.664749 -0.026109 0
1.664252 0.037297 0
1.636502 0.106061 0
1.585602 0.173041 0
1.515873 0.239617 0
1.427911 0.310203 0
1.343856 0.350068 0
1.300982 0.299619 0
1.275812 0.170540 0
1.220334 0.054863 0
1.173230 0.002185 0
1.139047 -0.005125 0
1.113149 0.006542 0
1.087596 0.020259 0
1.058459 0.030548 0
1.027262 0.030587 0
1.004159 0.016367 0
0.986599 0.000595 0
0.969759 -0.004220 0
0.960224 -0.002508 0
0.956516 -0.001282 0
0.956099 -0.000794 0
1.000000 -0.000203 0
1.000368 -0.000731 0
1.001099 -0.001532 0
1.002202 -0.002641 0
1.003728 -0.004064 0
1.005707 -0.005795 0
1.008180 -0.007828 0
1.011282 -0.010206 0
1.015113 -0.013027 0
1.019790 -0.016415 0
1.025466 -0.020531 0
1.032347 -0.025596 0
1.040713 -0.031897 0
1.050947 -0.039808 0
1.063588 -0.049783 0
1.079379 -0.062343 0
1.099380 -0.078016 0
1.125136 -0.097127 0
1.158498 -0.119554 0
1.202205 -0.144270 0
1.259416 -0.167198 0
1.329366 -0.184915 0
1.422024 -0.181869 0
1.496402 -0.146799 0
1.544685 -0.095801 0
1.570506 -0.042845 0
1.578390 0.010209 0
1.569688 0.063136 0
1.540561 0.111429 0
1.491117 0.151658 0
1.427454 0.183284 0
1.353504 0.204634 0
1.274487 0.214605 0
1.199309 0.212403 0
1.131149 0.204617 0
1.057969 0.188173 0
0.930479 0.176748 0
0.748682 0.090625 0
0.678908 -0.120498 0
0.714663 -0.298557 0
0.737544 -0.387431 0
0.853932 -0.412130 0
1.041451 -0.364549 0
1.214772 -0.263744 0
1.331441 -0.127959 0
1.413513 0.011791 0
1.467858 0.133092 0
1.474655 0.218982 0
1.439888 0.262431 0
1.375978 0.279382 0
1.297810 0.298179 0
1.226545 0.321371 0
1.188828 0.294235 0
1.162618 0.211255 0
1.103929 0.234780 0
0.945766 0.356571 0
0.865289 0.362858 0
0.854427 0.258807 0
0.818190 0.152458 0
0.668657 0.106662 0
0.493896 0.086975 0
0.411094 0.020802 0
0.403599 -0.062608 0
0.425022 -0.125919 0
0.451859 -0.167135 0
0.480466 -0.195690 0
0.515326 -0.218124 0
0.554718 -0.240831 0
0.601362 -0.266863 0
0.662364 -0.289709 0
0.747499 -0.303516 0
0.848542 -0.309338 0
0.951729 -0.318762 0
1.049302 -0.333162 0
1.137991 -0.331435 0
1.222043 -0.306567 0
1.301778 -0.262699 0
1.371320 -0.200415 0
1.420838 -0.123466 0
1.445470 -0.039349 0
1.445625 0.046777 0
1.426284 0.132966 0
1.392915 0.218449 0
1.346497 0.302709 0
1.300896 0.371471 0
1.279462 0.385688 0
1.282043 0.319015 0
1.269761 0.203496 0
1.222631 0.101983 0
1.161587 0.045886 0
1.105212 0.026636 0
1.059969 0.028513 0
1.030931 0.040722 0
1.013070 0.050815 0
1.002635 0.049625 0
0.992335 0.040405 0
0.977017 0.033591 0
0.960516 0.024955 0
0.952243 0.012542 0
0.952329 0.003740 0
0.952290 0.000123 0
1.000000 -0.000360 0
1.000249 -0.001208 0
1.000797 -0.002351 0
1.001673 -0.003845 0
1.002960 -0.005694 0
1.004663 -0.007885 0
1.006802 -0.010442 0
1.009442 -0.013434 0
1.012662 -0.016968 0
1.016552 -0.021189 0
1.021216 -0.026294 0
1.026795 -0.032557 0
1.033479 -0.040352 0
1.041548 -0.050179 0
1.051435 -0.062679 0
1.063757 -0.078665 0
1.079479 -0.099172 0
1.100669 -0.125026 0
1.129014 -0.157041 0
1.169844 -0.195410 0
1.228547 -0.234149 0
1.307550 -0.276687 0
1.454089 -0.277528 0
1.548566 -0.213826 0
1.596370 -0.134740 0
1.618140 -0.060169 0
1.625777 0.010305 0
1.620499 0.081594 0
1.594170 0.152038 0
1.540042 0.211562 0
1.459342 0.255783 0
1.364121 0.284806 0
1.265460 0.292656 0
1.150024 0.281249 0
1.120496 0.274360 0
1.132945 0.323225 0
1.073422 0.393012 0
1.029028 0.252771 0
0.802608 -0.072212 0
0.403247 -0.260322 0
0.205640 -0.400206 0
0.222684 -0.576565 0
0.426371 -0.590901 0
0.705164 -0.437585 0
0.938703 -0.247788 0
1.098327 -0.093599 0
1.198733 0.050728 0
1.271238 0.184563 0
1.319518 0.283316 0
1.319094 0.345198 0
1.279183 0.378592 0
1.232450 0.379750 0
1.209014 0.329509 0
1.168682 0.265673 0
0.990389 0.327485 0
0.805565 0.391937 0
0.776406 0.311662 0
0.817772 0.252300 0
0.755212 0.317417 0
0.531021 0.376032 0
0.384994 0.256781 0
0.389479 0.048171 0
0.442026 -0.096182 0
0.487335 -0.163483 0
0.515554 -0.195367 0
0.537003 -0.220846 0
0.567700 -0.243675 0
0.608093 -0.265045 0
0.646631 -0.292160 0
0.673829 -0.327986 0
0.697796 -0.368414 0
0.732316 -0.405602 0
0.790438 -0.425596 0
0.862840 -0.423436 0
0.937107 -0.408802 0
1.011628 -0.380516 0
1.081142 -0.331291 0
1.136039 -0.256101 0
1.177391 -0.158374 0
1.201479 -0.050893 0
1.207073 0.056487 0
1.197755 0.158775 0
1.175630 0.252831 0
1.151661 0.331641 0
1.148028 0.377243 0
1.170442 0.368925 0
1.192941 0.309325 0
1.186292 0.229957 0
1.146237 0.163041 0
1.092164 0.119608 0
1.042268 0.096499 0
1.005782 0.080829 0
0.985890 0.067163 0
0.979093 0.058851 0
0.979444 0.051327 0
0.979764 0.041989 0
0.978792 0.032419 0
0.978973 0.020560 0
0.973958 0.005684 0
0.961987 -0.001323 0
0.959980 -0.000818 0
1.000000 -0.000462 0
1.000121 -0.001540 0
1.000475 -0.002960 0
1.001071 -0.004809 0
1.002146 -0.007060 0
1.003567 -0.009641 0
1.005309 -0.012611 0
1.007401 -0.016071 0
1.009910 -0.020142 0
1.012888 -0.024973 0
1.016377 -0.030779 0
1.020435 -0.037863 0
1.025129 -0.046655 0
1.030571 -0.057769 0
1.037063 -0.071997 0
1.044927 -0.090392 0
1.054306 -0.114932 0
1.069142 -0.146666 0
1.087356 -0.188734 0
1.120972 -0.243808 0
1.170145 -0.304909 0
1.260781 -0.410461 0
1.520748 -0.422889 0
1.606173 -0.289085 0
1.617213 -0.165380 0
1.616809 -0.072256 0
1.622408 0.007846 0
1.637798 0.094739 0
1.638021 0.191882 0
1.611659 0.286481 0
1.540189 0.359201 0
1.438043 0.398511 0
1.300023 0.428698 0
1.139912 0.357363 0
0.932548 0.221692 0
0.880067 0.235243 0
0.840614 0.280661 0
0.821719 0.361436 0
0.540870 0.505280 0
0.165113 0.298408 0
-0.000527 -0.206871 0
-0.078933 -0.632865 0
-0.041435 -0.847032 0
0.177466 -0.776079 0
0.495211 -0.521124 0
0.750936 -0.248242 0
0.917527 -0.039822 0
1.035304 0.098196 0
1.110668 0.214573 0
1.163058 0.319714 0
1.197357 0.384821 0
1.213516 0.391539 0
1.208467 0.358002 0
1.129090 0.429878 0
0.880772 0.597896 0
0.712609 0.570553 0
0.631766 0.350650 0
0.572334 0.280001 0
0.437537 0.439208 0
0.349454 0.476881 0
0.394778 0.228518 0
0.488911 -0.036230 0
0.542941 -0.160464 0
0.549318 -0.199446 0
0.525980 -0.216802 0
0.505180 -0.247835 0
0.520997 -0.289213 0
0.574004 -0.319761 0
0.646181 -0.332597 0
0.712345 -0.340873 0
0.749998 -0.362001 0
0.755072 -0.401977 0
0.742861 -0.449284 0
0.742938 -0.479829 0
0.762162 -0.480220 0
0.793306 -0.450599 0
0.832523 -0.387108 0
0.872483 -0.296660 0
0.909052 -0.188903 0
0.935662 -0.069028 0
0.949779 0.050506 0
0.953640 0.164413 0
0.952093 0.264547 0
0.957500 0.330316 0
0.979399 0.352695 0
1.010725 0.340779 0
1.034066 0.303169 0
1.039414 0.250205 0
1.030858 0.196116 0
1.017657 0.149860 0
1.005668 0.113024 0
0.998449 0.084895 0
0.991059 0.067417 0
0.984408 0.057267 0
0.979882 0.048958 0
0.975897 0.041063 0
0.971626 0.034388 0
0.966743 0.029794 0
0.958622 0.029534 0
0.945423 0.017723 0
0.943866 0.003972 0
1.000000 -0.000490 0
1.000010 -0.001695 0
1.000220 -0.003307 0
1.000273 -0.005520 0
1.001243 -0.008195 0
1.002414 -0.011053 0
1.003758 -0.014281 0
1.005240 -0.018039 0
1.006957 -0.022460 0
1.008946 -0.027660 0
1.011169 -0.033845 0
1.013619 -0.041314 0
1.016201 -0.050493 0
1.018706 -0.062117 0
1.021435 -0.077040 0
1.024734 -0.095913 0
1.024464 -0.123391 0
1.033665 -0.158081 0
1.033316 -0.208876 0
1.056294 -0.278203 0
1.068025 -0.373963 0
1.194276 -0.627294 0
1.532887 -0.622924 0
1.443180 -0.310296 0
1.334230 -0.145381 0
1.284906 -0.065367 0
1.285674 -0.010688 0
1.355333 0.065976 0
1.426903 0.178172 0
1.489824 0.309390 0
1.505178 0.429395 0
1.471458 0.524967 0
1.384195 0.590782 0
1.272454 0.648720 0
1.023197 0.534201 0
0.636194 0.415155 0
0.475010 0.451357 0
0.313681 0.552511 0
0.148283 0.584390 0
0.270328 0.281072 0
0.348912 -0.156163 0
0.284742 -0.535661 0
0.108234 -0.847304 0
0.029111 -0.974234 0
0.184632 -0.821260 0
0.441540 -0.515917 0
0.668604 -0.233642 0
0.842635 -0.008580 0
0.952412 0.155560 0
1.027828 0.258506 0
1.079424 0.328132 0
1.120723 0.368640 0
1.122835 0.413934 0
1.013880 0.593366 0
0.910205 0.743965 0
0.892903 0.640943 0
0.848200 0.451936 0
0.716029 0.446528 0
0.593081 0.540297 0
0.588339 0.418792 0
0.673369 0.117324 0
0.742625 -0.099992 0
0.700019 -0.156589 0
0.581018 -0.146521 0
0.473298 -0.151228 0
0.418500 -0.215862 0
0.428619 -0.312498 0
0.477157 -0.390228 0
0.552747 -0.430499 0
0.643533 -0.431801 0
0.726532 -0.411139 0
0.774874 -0.398464 0
0.775620 -0.413460 0
0.742598 -0.442734 0
0.700298 -0.459168 0
0.662516 -0.450874 0
0.640197 -0.410464 0
0.642424 -0.332627 0
0.659257 -0.221550 0
0.673443 -0.091616 0
0.682339 0.038513 0
0.691320 0.156464 0
0.711860 0.248976 0
0.746978 0.304340 0
0.790363 0.324023 0
0.835978 0.314263 0
0.880218 0.280641 0
0.915510 0.233170 0
0.937585 0.184804 0
0.945832 0.144803 0
0.943488 0.115711 0
0.933505 0.095443 0
0.920254 0.081209 0
0.908981 0.070033 0
0.900484 0.059844 0
0.894351 0.050251 0
0.890258 0.041579 0
0.888719 0.033569 0
0.890746 0.027010 0
0.899162 0.013438 0
0.902045 0.002050 0
1.000000 -0.000480 0
0.999885 -0.001771 0
1.000063 -0.003228 0
0.999933 -0.005837 0
1.000176 -0.009205 0
1.001052 -0.012161 0
1.002120 -0.015442 0
1.002988 -0.019275 0
1.003925 -0.023853 0
1.004954 -0.029190 0
1.005909 -0.035457 0
1.006808 -0.042899 0
1.007487 -0.051746 0
1.007524 -0.063009 0
1.004398 -0.078030 0
1.006353 -0.093426 0
0.998309 -0.123868 0
0.997895 -0.155523 0
0.981638 -0.211368 0
0.979531 -0.278522 0
0.950348 -0.442896 0
1.036420 -0.875328 0
0.750020 -0.581367 0
-0.000790 0.000000 0
-0.002477 0.000000 0
0.489804 -0.016595 0
0.464408 -0.062585 0
0.638705 -0.046495 0
0.687360 0.057386 0
0.955789 0.208201 0
1.117230 0.377563 0
1.255190 0.519490 0
1.272351 0.627697 0
1.232976 0.718357 0
1.146505 0.857948 0
0.834148 0.783427 0
0.661284 0.603171 0
0.455330 0.688159 0
0.400316 0.548629 0
0.532982 0.097776 0
0.626966 -0.221288 0
0.668750 -0.392190 0
0.575038 -0.591404 0
0.347850 -0.852480 0
0.211159 -0.933556 0
0.298936 -0.732216 0
0.481989 -0.440920 0
0.665121 -0.185615 0
0.822381 0.029378 0
0.929604 0.192700 0
0.990509 0.291925 0
1.024866 0.348127 0
1.012471 0.464844 0
0.965113 0.642507 0
1.013612 0.718872 0
1.068955 0.632558 0
1.055125 0.527523 0
0.969528 0.535119 0
0.940743 0.566897 0
0.960523 0.396592 0
0.936799 0.074232 0
0.780317 -0.062880 0
0.620024 0.001143 0
0.508217 0.027276 0
0.458927 -0.054284 0
0.469239 -0.203156 0
0.510183 -0.347869 0
0.559995 -0.443887 0
0.604770 -0.498971 0
0.650251 -0.514656 0
0.700098 -0.493340 0
0.749592 -0.451062 0
0.775102 -0.417006 0
0.755584 -0.404505 0
0.704438 -0.400136 0
0.641148 -0.390495 0
0.576910 -0.367013 0
0.526025 -0.315717 0
0.496698 -0.219918 0
0.485467 -0.092106 0
0.489840 0.032633 0
0.512780 0.134895 0
0.558671 0.208893 0
0.621134 0.251817 0
0.691335 0.263699 0
0.760912 0.250929 0
0.819910 0.223643 0
0.859467 0.192843 0
0.877577 0.165798 0
0.878923 0.143961 0
0.871289 0.125356 0
0.861147 0.108135 0
0.852535 0.091946 0
0.847582 0.077041 0
0.846192 0.063593 0
0.848067 0.051295 0
0.852468 0.040025 0
0.859202 0.029312 0
0.867742 0.019097 0
0.878051 0.006430 0
0.882402 -0.001826 0
1.000000 -0.000383 0
0.999950 -0.001770 0
0.999702 -0.003359 0
0.999992 -0.005638 0
0.999733 -0.009319 0
0.999800 -0.013002 0
1.000186 -0.016221 0
1.000359 -0.019850 0
1.001010 -0.024430 0
1.000842 -0.029649 0
1.001571 -0.035704 0
1.000113 -0.042897 0
1.000565 -0.051214 0
0.996357 -0.059033 0
0.994853 -0.075874 0
0.985020 -0.089829 0
0.986823 -0.114938 0
0.956753 -0.141414 0
0.957538 -0.190517 0
0.887422 -0.246919 0
0.871598 -0.430857 0
0.637299 -0.517402 0
0.000000 0.000680 0
-0.628868 0.215265 0
-0.532630 0.000000 0
0.000000 0.000000 0
-0.024081 -0.167078 0
-0.078130 -0.156980 0
-0.123370 -0.138916 0
0.236189 -0.120485 0
0.536437 0.129990 0
0.828428 0.369843 0
1.018420 0.612991 0
1.056147 0.774562 0
1.009964 0.933026 0
1.006074 0.900372 0
0.830062 0.830171 0
0.589746 0.813476 0
0.587239 0.506734 0
0.544093 0.054418 0
0.452287 -0.291935 0
0.477746 -0.483735 0
0.602839 -0.526407 0
0.629115 -0.610359 0
0.482737 -0.772349 0
0.377390 -0.786750 0
0.440520 -0.599829 0
0.580608 -0.348974 0
0.727874 -0.108926 0
0.848564 0.090377 0
0.934122 0.232868 0
0.968279 0.346676 0
0.964461 0.473686 0
1.006252 0.592224 0
1.101580 0.640121 0
1.178838 0.599429 0
1.189029 0.551362 0
1.163113 0.560910 0
1.164232 0.549302 0
1.201114 0.422736 0
1.149211 0.297530 0
0.991499 0.216783 0
0.887644 0.115511 0
0.850589 0.014577 0
0.840467 -0.112250 0
0.855011 -0.267117 0
0.880031 -0.403252 0
0.904503 -0.484814 0
0.896433 -0.520754 0
0.857361 -0.527127 0
0.819009 -0.510478 0
0.799477 -0.473466 0
0.796261 -0.419450 0
0.782450 -0.372067 0
0.745091 -0.344729 0
0.686550 -0.323344 0
0.616947 -0.295338 0
0.547635 -0.252412 0
0.492752 -0.180988 0
0.470714 -0.084754 0
0.482892 0.011204 0
0.522594 0.087637 0
0.581445 0.140626 0
0.649721 0.171681 0
0.714879 0.184249 0
0.766306 0.185692 0
0.798404 0.182090 0
0.812051 0.175508 0
0.813212 0.165353 0
0.809014 0.151096 0
0.804625 0.133492 0
0.802506 0.114202 0
0.803628 0.094780 0
0.808328 0.076381 0
0.816432 0.059365 0
0.827578 0.043981 0
0.839742 0.030449 0
0.852842 0.018300 0
0.863549 0.008166 0
0.872598 -0.001217 0
0.877663 -0.006638 0
1.000000 -0.000440 0
1.000089 -0.001485 0
0.999628 -0.003275 0
0.999875 -0.005873 0
0.999670 -0.009018 0
0.999192 -0.012618 0
0.998734 -0.016006 0
0.998726 -0.020104 0
0.998382 -0.024340 0
0.998072 -0.029756 0
0.997475 -0.034732 0
0.995612 -0.041897 0
0.992882 -0.047995 0
0.989028 -0.057302 0
0.986851 -0.066698 0
0.973905 -0.085400 0
0.966825 -0.095606 0
0.940758 -0.126242 0
0.918548 -0.142041 0
0.853153 -0.192587 0
0.790772 -0.192779 0
0.477812 -0.085830 0
0.340999 -0.026164 0
0.000000 0.000000 0
0.000000 0.000000 0
0.000000 0.000000 0
0.000000 0.000000 0
-0.175136 0.044734 0
-0.158004 -0.256937 0
-0.308182 -0.451610 0
0.086889 -0.214681 0
0.292224 0.037502 0
0.779104 0.399973 0
0.945817 0.726809 0
0.985374 0.908018 0
1.004285 0.963325 0
0.860283 1.019495 0
0.721173 0.930979 0
0.690534 0.594278 0
0.612350 0.232724 0
0.505283 -0.154944 0
0.394389 -0.542745 0
0.392917 -0.742776 0
0.543668 -0.732381 0
0.635764 -0.681834 0
0.588842 -0.690001 0
0.553406 -0.644140 0
0.605344 -0.472972 0
0.708026 -0.238580 0
0.811521 -0.013550 0
0.889647 0.172208 0
0.933745 0.317787 0
0.978220 0.426869 0
1.058013 0.505386 0
1.157797 0.546285 0
1.239553 0.545108 0
1.270774 0.543248 0
1.279409 0.559915 0
1.310203 0.528896 0
1.356353 0.411613 0
1.362702 0.283847 0