# vtk DataFile Version 2.0
generated by CFD-lab course output (written by Tobias Neckel) 
ASCII

DATASET STRUCTURED_GRID
DIMENSIONS  101 21 1 
POINTS 2121 float

0.000000 0.000000 0
0.100000 0.000000 0
0.200000 0.000000 0
0.300000 0.000000 0
0.400000 0.000000 0
0.500000 0.000000 0
0.600000 0.000000 0
0.700000 0.000000 0
0.800000 0.000000 0
0.900000 0.000000 0
1.000000 0.000000 0
1.100000 0.000000 0
1.200000 0.000000 0
1.300000 0.000000 0
1.400000 0.000000 0
1.500000 0.000000 0
1.600000 0.000000 0
1.700000 0.000000 0
1.800000 0.000000 0
1.900000 0.000000 0
2.000000 0.000000 0
2.100000 0.000000 0
2.200000 0.000000 0
2.300000 0.000000 0
2.400000 0.000000 0
2.500000 0.000000 0
2.600000 0.000000 0
2.700000 0.000000 0
2.800000 0.000000 0
2.900000 0.000000 0
3.000000 0.000000 0
3.100000 0.000000 0
3.200000 0.000000 0
3.300000 0.000000 0
3.400000 0.000000 0
3.500000 0.000000 0
3.600000 0.000000 0
3.700000 0.000000 0
3.800000 0.000000 0
3.900000 0.000000 0
4.000000 0.000000 0
4.100000 0.000000 0
4.200000 0.000000 0
4.300000 0.000000 0
4.400000 0.000000 0
4.500000 0.000000 0
4.600000 0.000000 0
4.700000 0.000000 0
4.800000 0.000000 0
4.900000 0.000000 0
5.000000 0.000000 0
5.100000 0.000000 0
5.200000 0.000000 0
5.300000 0.000000 0
5.400000 0.000000 0
5.500000 0.000000 0
5.600000 0.000000 0
5.700000 0.000000 0
5.800000 0.000000 0
5.900000 0.000000 0
6.000000 0.000000 0
6.100000 0.000000 0
6.200000 0.000000 0
6.300000 0.000000 0
6.400000 0.000000 0
6.500000 0.000000 0
6.600000 0.000000 0
6.700000 0.000000 0
6.800000 0.000000 0
6.900000 0.000000 0
7.000000 0.000000 0
7.100000 0.000000 0
7.200000 0.000000 0
7.300000 0.000000 0
7.400000 0.000000 0
7.500000 0.000000 0
7.600000 0.000000 0
7.700000 0.000000 0
7.800000 0.000000 0
7.900000 0.000000 0
8.000000 0.000000 0
8.100000 0.000000 0
8.200000 0.000000 0
8.300000 0.000000 0
8.400000 0.000000 0
8.500000 0.000000 0
8.600000 0.000000 0
8.700000 0.000000 0
8.800000 0.000000 0
8.900000 0.000000 0
9.000000 0.000000 0
9.100000 0.000000 0
9.200000 0.000000 0
9.300000 0.000000 0
9.400000 0.000000 0
9.500000 0.000000 0
9.600000 0.000000 0
9.700000 0.000000 0
9.800000 0.000000 0
9.900000 0.000000 0
10.000000 0.000000 0
0.000000 0.100000 0
0.100000 0.100000 0
0.200000 0.100000 0
0.300000 0.100000 0
0.400000 0.100000 0
0.500000 0.100000 0
0.600000 0.100000 0
0.700000 0.100000 0
0.800000 0.100000 0
0.900000 0.100000 0
1.000000 0.100000 0
1.100000 0.100000 0
1.200000 0.100000 0
1.300000 0.100000 0
1.400000 0.100000 0
1.500000 0.100000 0
1.600000 0.100000 0
1.700000 0.100000 0
1.800000 0.100000 0
1.900000 0.100000 0
2.000000 0.100000 0
2.100000 0.100000 0
2.200000 0.100000 0
2.300000 0.100000 0
2.400000 0.100000 0
2.500000 0.100000 0
2.600000 0.100000 0
2.700000 0.100000 0
2.800000 0.100000 0
2.900000 0.100000 0
3.000000 0.100000 0
3.100000 0.100000 0
3.200000 0.100000 0
3.300000 0.100000 0
3.400000 0.100000 0
3.500000 0.100000 0
3.600000 0.100000 0
3.700000 0.100000 0
3.800000 0.100000 0
3.900000 0.100000 0
4.000000 0.100000 0
4.100000 0.100000 0
4.200000 0.100000 0
4.300000 0.100000 0
4.400000 0.100000 0
4.500000 0.100000 0
4.600000 0.100000 0
4.700000 0.100000 0
4.800000 0.100000 0
4.900000 0.100000 0
5.000000 0.100000 0
5.100000 0.100000 0
5.200000 0.100000 0
5.300000 0.100000 0
5.400000 0.100000 0
5.500000 0.100000 0
5.600000 0.100000 0
5.700000 0.100000 0
5.800000 0.100000 0
5.900000 0.100000 0
6.000000 0.100000 0
6.100000 0.100000 0
6.200000 0.100000 0
6.300000 0.100000 0
6.400000 0.100000 0
6.500000 0.100000 0
6.600000 0.100000 0
6.700000 0.100000 0
6.800000 0.100000 0
6.900000 0.100000 0
7.000000 0.100000 0
7.100000 0.100000 0
7.200000 0.100000 0
7.300000 0.100000 0
7.400000 0.100000 0
7.500000 0.100000 0
7.600000 0.100000 0
7.700000 0.100000 0
7.800000 0.100000 0
7.900000 0.100000 0
8.000000 0.100000 0
8.100000 0.100000 0
8.200000 0.100000 0
8.300000 0.100000 0
8.400000 0.100000 0
8.500000 0.100000 0
8.600000 0.100000 0
8.700000 0.100000 0
8.800000 0.100000 0
8.900000 0.100000 0
9.000000 0.100000 0
9.100000 0.100000 0
9.200000 0.100000 0
9.300000 0.100000 0
9.400000 0.100000 0
9.500000 0.100000 0
9.600000 0.100000 0
9.700000 0.100000 0
9.800000 0.100000 0
9.900000 0.100000 0
10.000000 0.100000 0
0.000000 0.200000 0
0.100000 0.200000 0
0.200000 0.200000 0
0.300000 0.200000 0
0.400000 0.200000 0
0.500000 0.200000 0
0.600000 0.200000 0
0.700000 0.200000 0
0.800000 0.200000 0
0.900000 0.200000 0
1.000000 0.200000 0
1.100000 0.200000 0
1.200000 0.200000 0
1.300000 0.200000 0
1.400000 0.200000 0
1.500000 0.200000 0
1.600000 0.200000 0
1.700000 0.200000 0
1.800000 0.200000 0
1.900000 0.200000 0
2.000000 0.200000 0
2.100000 0.200000 0
2.200000 0.200000 0
2.300000 0.200000 0
2.400000 0.200000 0
2.500000 0.200000 0
2.600000 0.200000 0
2.700000 0.200000 0
2.800000 0.200000 0
2.900000 0.200000 0
3.000000 0.200000 0
3.100000 0.200000 0
3.200000 0.200000 0
3.300000 0.200000 0
3.400000 0.200000 0
3.500000 0.200000 0
3.600000 0.200000 0
3.700000 0.200000 0
3.800000 0.200000 0
3.900000 0.200000 0
4.000000 0.200000 0
4.100000 0.200000 0
4.200000 0.200000 0
4.300000 0.200000 0
4.400000 0.200000 0
4.500000 0.200000 0
4.600000 0.200000 0
4.700000 0.200000 0
4.800000 0.200000 0
4.900000 0.200000 0
5.000000 0.200000 0
5.100000 0.200000 0
5.200000 0.200000 0
5.300000 0.200000 0
5.400000 0.200000 0
5.500000 0.200000 0
5.600000 0.200000 0
5.700000 0.200000 0
5.800000 0.200000 0
5.900000 0.200000 0
6.000000 0.200000 0
6.100000 0.200000 0
6.200000 0.200000 0
6.300000 0.200000 0
6.400000 0.200000 0
6.500000 0.200000 0
6.600000 0.200000 0
6.700000 0.200000 0
6.800000 0.200000 0
6.900000 0.200000 0
7.000000 0.200000 0
7.100000 0.200000 0
7.200000 0.200000 0
7.300000 0.200000 0
7.400000 0.200000 0
7.500000 0.200000 0
7.600000 0.200000 0
7.700000 0.200000 0
7.800000 0.200000 0
7.900000 0.200000 0
8.000000 0.200000 0
8.100000 0.200000 0
8.200000 0.200000 0
8.300000 0.200000 0
8.400000 0.200000 0
8.500000 0.200000 0
8.600000 0.200000 0
8.700000 0.200000 0
8.800000 0.200000 0
8.900000 0.200000 0
9.000000 0.200000 0
9.100000 0.200000 0
9.200000 0.200000 0
9.300000 0.200000 0
9.400000 0.200000 0
9.500000 0.200000 0
9.600000 0.200000 0
9.700000 0.200000 0
9.800000 0.200000 0
9.900000 0.200000 0
10.000000 0.200000 0
0.000000 0.300000 0
0.100000 0.300000 0
0.200000 0.300000 0
0.300000 0.300000 0
0.400000 0.300000 0
0.500000 0.300000 0
0.600000 0.300000 0
0.700000 0.300000 0
0.800000 0.300000 0
0.900000 0.300000 0
1.000000 0.300000 0
1.100000 0.300000 0
1.200000 0.300000 0
1.300000 0.300000 0
1.400000 0.300000 0
1.500000 0.300000 0
1.600000 0.300000 0
1.700000 0.300000 0
1.800000 0.300000 0
1.900000 0.300000 0
2.000000 0.300000 0
2.100000 0.300000 0
2.200000 0.300000 0
2.300000 0.300000 0
2.400000 0.300000 0
2.500000 0.300000 0
2.600000 0.300000 0
2.700000 0.300000 0
2.800000 0.300000 0
2.900000 0.300000 0
3.000000 0.300000 0
3.100000 0.300000 0
3.200000 0.300000 0
3.300000 0.300000 0
3.400000 0.300000 0
3.500000 0.300000 0
3.600000 0.300000 0
3.700000 0.300000 0
3.800000 0.300000 0
3.900000 0.300000 0
4.000000 0.300000 0
4.100000 0.300000 0
4.200000 0.300000 0
4.300000 0.300000 0
4.400000 0.300000 0
4.500000 0.300000 0
4.600000 0.300000 0
4.700000 0.300000 0
4.800000 0.300000 0
4.900000 0.300000 0
5.000000 0.300000 0
5.100000 0.300000 0
5.200000 0.300000 0
5.300000 0.300000 0
5.400000 0.300000 0
5.500000 0.300000 0
5.600000 0.300000 0
5.700000 0.300000 0
5.800000 0.300000 0
5.900000 0.300000 0
6.000000 0.300000 0
6.100000 0.300000 0
6.200000 0.300000 0
6.300000 0.300000 0
6.400000 0.300000 0
6.500000 0.300000 0
6.600000 0.300000 0
6.700000 0.300000 0
6.800000 0.300000 0
6.900000 0.300000 0
7.000000 0.300000 0
7.100000 0.300000 0
7.200000 0.300000 0
7.300000 0.300000 0
7.400000 0.300000 0
7.500000 0.300000 0
7.600000 0.300000 0
7.700000 0.300000 0
7.800000 0.300000 0
7.900000 0.300000 0
8.000000 0.300000 0
8.100000 0.300000 0
8.200000 0.300000 0
8.300000 0.300000 0
8.400000 0.300000 0
8.500000 0.300000 0
8.600000 0.300000 0
8.700000 0.300000 0
8.800000 0.300000 0
8.900000 0.300000 0
9.000000 0.300000 0
9.100000 0.300000 0
9.200000 0.300000 0
9.300000 0.300000 0
9.400000 0.300000 0
9.500000 0.300000 0
9.600000 0.300000 0
9.700000 0.300000 0
9.800000 0.300000 0
9.900000 0.300000 0
10.000000 0.300000 0
0.000000 0.400000 0
0.100000 0.400000 0
0.200000 0.400000 0
0.300000 0.400000 0
0.400000 0.400000 0
0.500000 0.400000 0
0.600000 0.400000 0
0.700000 0.400000 0
0.800000 0.400000 0
0.900000 0.400000 0
1.000000 0.400000 0
1.100000 0.400000 0
1.200000 0.400000 0
1.300000 0.400000 0
1.400000 0.400000 0
1.500000 0.400000 0
1.600000 0.400000 0
1.700000 0.400000 0
1.800000 0.400000 0
1.900000 0.400000 0
2.000000 0.400000 0
2.100000 0.400000 0
2.200000 0.400000 0
2.300000 0.400000 0
2.400000 0.400000 0
2.500000 0.400000 0
2.600000 0.400000 0
2.700000 0.400000 0
2.800000 0.400000 0
2.900000 0.400000 0
3.000000 0.400000 0
3.100000 0.400000 0
3.200000 0.400000 0
3.300000 0.400000 0
3.400000 0.400000 0
3.500000 0.400000 0
3.600000 0.400000 0
3.700000 0.400000 0
3.800000 0.400000 0
3.900000 0.400000 0
4.000000 0.400000 0
4.100000 0.400000 0
4.200000 0.400000 0
4.300000 0.400000 0
4.400000 0.400000 0
4.500000 0.400000 0
4.600000 0.400000 0
4.700000 0.400000 0
4.800000 0.400000 0
4.900000 0.400000 0
5.000000 0.400000 0
5.100000 0.400000 0
5.200000 0.400000 0
5.300000 0.400000 0
5.400000 0.400000 0
5.500000 0.400000 0
5.600000 0.400000 0
5.700000 0.400000 0
5.800000 0.400000 0
5.900000 0.400000 0
6.000000 0.400000 0
6.100000 0.400000 0
6.200000 0.400000 0
6.300000 0.400000 0
6.400000 0.400000 0
6.500000 0.400000 0
6.600000 0.400000 0
6.700000 0.400000 0
6.800000 0.400000 0
6.900000 0.400000 0
7.000000 0.400000 0
7.100000 0.400000 0
7.200000 0.400000 0
7.300000 0.400000 0
7.400000 0.400000 0
7.500000 0.400000 0
7.600000 0.400000 0
7.700000 0.400000 0
7.800000 0.400000 0
7.900000 0.400000 0
8.000000 0.400000 0
8.100000 0.400000 0
8.200000 0.400000 0
8.300000 0.400000 0
8.400000 0.400000 0
8.500000 0.400000 0
8.600000 0.400000 0
[...]
POINT_DATA 2121 

VECTORS velocity float
0.500000 0.000000 0
-0.000001 0.000000 0
-0.000021 0.000000 0
-0.000043 0.000000 0
-0.000073 0.000000 0
-0.000117 0.000000 0
-0.000186 0.000000 0
-0.000227 0.000000 0
-0.000268 0.000000 0
-0.000331 0.000000 0
-0.000408 0.000000 0
-0.000497 0.000000 0
-0.000596 0.000000 0
-0.000709 0.000000 0
-0.000838 0.000000 0
-0.000984 0.000000 0
-0.001149 0.000000 0
-0.001334 0.000000 0
-0.001539 0.000000 0
-0.001763 0.000000 0
-0.002004 0.000000 0
-0.002247 0.000000 0
-0.002485 0.000000 0
-0.002564 0.000000 0
-0.002487 0.000000 0
-0.002179 0.000000 0
-0.001586 0.000000 0
-0.000613 0.000000 0
0.000774 0.000000 0
0.002458 0.000000 0
0.004192 0.000000 0
0.005731 0.000000 0
0.006829 0.000000 0
0.007415 0.000000 0
0.007547 0.000000 0
0.007282 0.000000 0
0.006675 0.000000 0
0.005810 0.000000 0
0.004705 0.000000 0
0.003388 0.000000 0
0.003191 0.000000 0
0.003456 0.000000 0
0.002214 0.000000 0
0.002244 0.000000 0
0.000605 0.000000 0
-0.000429 0.000000 0
-0.000814 0.000000 0
-0.001012 0.000000 0
-0.001127 0.000000 0
-0.001130 0.000000 0
-0.001070 0.000000 0
-0.000992 0.000000 0
-0.000920 0.000000 0
-0.000859 0.000000 0
-0.000810 0.000000 0
-0.000770 0.000000 0
-0.000736 0.000000 0
-0.000705 0.000000 0
-0.000674 0.000000 0
-0.000644 0.000000 0
-0.000615 0.000000 0
-0.000584 0.000000 0
-0.000553 0.000000 0
-0.000525 0.000000 0
-0.000498 0.000000 0
-0.000471 0.000000 0
-0.000448 0.000000 0
-0.000427 0.000000 0
-0.000402 0.000000 0
-0.000379 0.000000 0
-0.000370 0.000000 0
-0.000359 0.000000 0
-0.000329 0.000000 0
-0.000301 0.000000 0
-0.000301 0.000000 0
-0.000319 0.000000 0
-0.000311 0.000000 0
-0.000296 0.000000 0
-0.000283 0.000000 0
-0.000273 0.000000 0
-0.000264 0.000000 0
-0.000257 0.000000 0
-0.000251 0.000000 0
-0.000247 0.000000 0
-0.000243 0.000000 0
-0.000240 0.000000 0
-0.000238 0.000000 0
-0.000236 0.000000 0
-0.000234 0.000000 0
-0.000233 0.000000 0
-0.000232 0.000000 0
-0.000231 0.000000 0
-0.000230 0.000000 0
-0.000230 0.000000 0
-0.000229 0.000000 0
-0.000229 0.000000 0
-0.000229 0.000000 0
-0.000229 0.000000 0
-0.000229 0.000000 0
-0.000229 0.000000 0
-0.000230 0.000000 0
1.000000 0.000387 0
0.999897 0.000907 0
0.999828 0.000957 0
0.999964 0.000738 0
1.000431 0.000380 0
1.001367 -0.000252 0
1.002941 -0.001220 0
1.005301 -0.002116 0
1.008536 -0.002976 0
1.012853 -0.004210 0
1.018528 -0.005808 0
1.025898 -0.007809 0
1.035388 -0.010306 0
1.047534 -0.013422 0
1.063006 -0.017303 0
1.082636 -0.022094 0
1.107412 -0.027906 0
1.138447 -0.034745 0
1.176859 -0.042413 0
1.223513 -0.050374 0
1.278637 -0.057566 0
1.340866 -0.062645 0
1.407925 -0.063958 0
1.472917 -0.060304 0
1.530757 -0.053292 0
1.580482 -0.045285 0
1.622252 -0.036611 0
1.655759 -0.026140 0
1.678515 -0.012225 0
1.685708 0.005720 0
1.672494 0.026361 0
1.636912 0.046885 0
1.580973 0.063684 0
1.510056 0.074937 0
1.430936 0.080876 0
1.348925 0.081744 0
1.268633 0.078019 0
1.193853 0.070268 0
1.127486 0.058520 0
1.071150 0.045367 0
1.026602 0.041470 0
0.994469 0.040100 0
0.958254 0.033863 0
0.911368 0.026632 0
0.885475 0.014121 0
0.883496 0.002511 0
0.886375 -0.002921 0
0.891049 -0.005451 0
0.897451 -0.006716 0
0.904581 -0.007052 0
0.911466 -0.006776 0
0.917768 -0.006251 0
0.923490 -0.005689 0
0.928732 -0.005177 0
0.933590 -0.004742 0
0.938125 -0.004380 0
0.942369 -0.004065 0
0.946347 -0.003778 0
0.950069 -0.003508 0
0.953539 -0.003247 0
0.956753 -0.002995 0
0.959703 -0.002742 0
0.962400 -0.002491 0
0.964860 -0.002265 0
0.967078 -0.002049 0
0.969072 -0.001835 0
0.970880 -0.001657 0
0.972490 -0.001498 0
0.973887 -0.001299 0
0.975136 -0.001122 0
0.976293 -0.001053 0
0.977297 -0.000980 0
0.978081 -0.000756 0
0.978735 -0.000508 0
0.979414 -0.000483 0
0.980108 -0.000617 0
0.980706 -0.000646 0
0.981221 -0.000557 0
0.981662 -0.000461 0
0.982034 -0.000378 0
0.982348 -0.000310 0
0.982611 -0.000254 0
0.982831 -0.000209 0
0.983015 -0.000171 0
0.983169 -0.000141 0
0.983298 -0.000117 0
0.983405 -0.000098 0
0.983495 -0.000082 0
0.983571 -0.000070 0
0.983635 -0.000060 0
0.983690 -0.000053 0
0.983738 -0.000047 0
0.983780 -0.000045 0
0.983820 -0.000043 0
0.983860 -0.000047 0
0.983902 -0.000049 0
0.983951 -0.000070 0
0.984016 -0.000089 0
0.984106 -0.000200 0
0.984256 -0.000391 0
0.984466 -0.000468 0
1.000000 0.000119 0
1.000450 0.000195 0
1.001228 -0.000053 0
1.002279 -0.000589 0
1.003707 -0.001390 0
1.005592 -0.002496 0
1.007943 -0.003920 0
1.010805 -0.005582 0
1.014614 -0.007539 0
1.019460 -0.009980 0
1.025529 -0.013033 0
1.033107 -0.016848 0
1.042575 -0.021624 0
1.054427 -0.027607 0
1.069296 -0.035092 0
1.087994 -0.044395 0
1.111554 -0.055801 0
1.141261 -0.069437 0
1.178597 -0.085057 0
1.225089 -0.101770 0
1.281984 -0.117345 0
1.348215 -0.129280 0
1.423460 -0.132044 0
1.493590 -0.122827 0
1.553119 -0.107560 0
1.602602 -0.091491 0
1.644559 -0.075273 0
1.681018 -0.056259 0
1.710326 -0.029946 0
1.725368 0.006023 0
1.717447 0.048798 0
1.682866 0.091523 0
1.625109 0.126857 0
1.550557 0.150037 0
1.466893 0.161131 0
1.379048 0.162303 0
1.292336 0.155071 0
1.212234 0.141146 0
1.141213 0.122702 0
1.078246 0.100882 0
1.034896 0.076679 0
1.038317 0.068346 0
1.035737 0.083098 0
1.007822 0.072775 0
0.969460 0.027869 0
0.930917 -0.000904 0
0.911569 -0.007557 0
0.908745 -0.011080 0
0.914900 -0.013538 0
0.923062 -0.014020 0
0.930220 -0.013193 0
0.936295 -0.012030 0
0.941697 -0.010971 0
0.946722 -0.010107 0
0.951505 -0.009399 0
0.956086 -0.008785 0
0.960463 -0.008229 0
0.964620 -0.007708 0
0.968536 -0.007200 0
0.972193 -0.006692 0
0.975580 -0.006171 0
0.978689 -0.005655 0
0.981536 -0.005166 0
0.984120 -0.004687 0
0.986440 -0.004221 0
0.988531 -0.003811 0
0.990400 -0.003426 0
0.992028 -0.003016 0
0.993466 -0.002655 0
0.994806 -0.002416 0
0.995986 -0.002171 0
0.996906 -0.001797 0
0.997673 -0.001448 0
0.998501 -0.001342 0
0.999392 -0.001383 0
1.000105 -0.001302 0
1.000618 -0.001123 0
1.001054 -0.000966 0
1.001436 -0.000823 0
1.001771 -0.000696 0
1.002062 -0.000587 0
1.002313 -0.000494 0
1.002530 -0.000415 0
1.002715 -0.000348 0
1.002874 -0.000293 0
1.003010 -0.000246 0
1.003125 -0.000208 0
1.003223 -0.000176 0
1.003307 -0.000150 0
1.003378 -0.000130 0
1.003439 -0.000113 0
1.003492 -0.000101 0
1.003540 -0.000093 0
1.003582 -0.000090 0
1.003623 -0.000092 0
1.003662 -0.000102 0
1.003710 -0.000125 0
1.003749 -0.000166 0
1.003816 -0.000250 0
1.003805 -0.000371 0
1.003762 -0.000432 0
1.000000 -0.000052 0
1.000292 -0.000307 0
1.000876 -0.000867 0
1.001751 -0.001735 0
1.002960 -0.002928 0
1.004568 -0.004483 0
1.006633 -0.006427 0
1.009248 -0.008781 0
1.012601 -0.011627 0
1.016822 -0.015120 0
1.022080 -0.019450 0
1.028608 -0.024851 0
1.036729 -0.031621 0
1.046871 -0.040139 0
1.059603 -0.050865 0
1.075697 -0.064348 0
1.096222 -0.081169 0
1.122711 -0.101785 0
1.157137 -0.126237 0
1.202234 -0.153758 0
1.261287 -0.180688 0
1.333650 -0.204119 0
1.428374 -0.209331 0
1.509349 -0.189960 0
1.569539 -0.162302 0
1.615456 -0.136724 0
1.654087 -0.115027 0
1.692684 -0.091907 0
1.732907 -0.056574 0
1.763236 -0.001399 0
1.765068 0.068863 0
1.727905 0.139223 0
1.659431 0.195992 0
1.574688 0.233153 0
1.485610 0.252385 0
1.397636 0.256301 0
1.312053 0.244832 0
1.229327 0.221390 0
1.154821 0.192507 0
1.096350 0.151683 0
1.042361 0.081398 0
0.966849 0.039258 0
0.917245 0.064357 0
0.904917 0.092907 0
0.894443 0.091025 0
0.879815 0.060401 0
0.879379 0.019248 0
0.890472 -0.008785 0
0.907914 -0.021036 0
0.921665 -0.022374 0
0.929721 -0.020011 0
0.935438 -0.017730 0
0.940490 -0.016119 0
0.945415 -0.014988 0
0.950307 -0.014110 0
0.955126 -0.013341 0
0.959803 -0.012602 0
0.964262 -0.011854 0
0.968449 -0.011084 0
0.972333 -0.010295 0
0.975898 -0.009495 0
0.979157 -0.008702 0
0.982106 -0.007925 0
0.984740 -0.007172 0
0.987101 -0.006465 0
0.989211 -0.005798 0
0.991051 -0.005157 0
0.992657 -0.004568 0
0.994127 -0.004081 0
0.995434 -0.003645 0
0.996478 -0.003157 0
0.997355 -0.002671 0
0.998255 -0.002355 0
0.999181 -0.002231 0
0.999942 -0.002091 0
1.000498 -0.001847 0
1.000986 -0.001600 0
1.001407 -0.001380 0
1.001772 -0.001183 0
1.002089 -0.001008 0
1.002363 -0.000857 0
1.002598 -0.000726 0
1.002801 -0.000615 0
1.002975 -0.000520 0
1.003124 -0.000440 0
1.003250 -0.000372 0
1.003358 -0.000315 0
1.003450 -0.000268 0
1.003528 -0.000229 0
1.003594 -0.000197 0
1.003651 -0.000171 0
1.003700 -0.000152 0
1.003742 -0.000138 0
1.003779 -0.000131 0
1.003813 -0.000131 0
1.003844 -0.000140 0
1.003873 -0.000162 0
1.003896 -0.000200 0
1.003913 -0.000261 0
1.003894 -0.000341 0
1.003845 -0.000385 0
1.000000 -0.000162 0
1.000175 -0.000667 0
1.000617 -0.001505 0
1.001303 -0.002667 0
1.002256 -0.004201 0
1.003550 -0.006164 0
1.005259 -0.008596 0
1.007463 -0.011545 0
1.010250 -0.015107 0
1.013699 -0.019453 0
1.017940 -0.024814 0
1.023130 -0.031492 0
1.029522 -0.039882 0
1.037452 -0.050477 0
1.047365 -0.063913 0
1.059899 -0.081010 0
1.076004 -0.102812 0
1.097473 -0.130349 0
1.126365 -0.164577 0
1.167624 -0.205917 0
1.226541 -0.248758 0
1.306230 -0.296365 0
1.449588 -0.307741 0
1.544854 -0.263989 0
1.594313 -0.213665 0
1.625741 -0.176038 0
1.649809 -0.152500 0
1.682246 -0.135078 0
1.736708 -0.100497 0
1.798602 -0.026137 0
1.830492 0.084129 0
1.800282 0.197160 0
1.715734 0.280074 0
1.596650 0.323859 0
1.468543 0.338183 0
1.353552 0.335859 0
1.256125 0.323379 0
1.173801 0.298377 0
1.113304 0.255679 0
1.067294 0.213341 0
1.016154 0.206178 0
0.939896 0.193460 0
0.897444 0.145028 0
0.906711 0.095575 0
0.938075 0.052970 0
0.968583 0.014158 0
0.977594 -0.018217 0
0.968821 -0.039618 0
0.950286 -0.044733 0
0.936937 -0.035829 0
0.932898 -0.026968 0
0.934164 -0.022802 0
0.937975 -0.020951 0
0.942917 -0.019927 0
0.948286 -0.019113 0
0.953708 -0.018283 0
0.958958 -0.017368 0
0.963920 -0.016358 0
0.968534 -0.015275 0
0.972755 -0.014144 0
0.976573 -0.012998 0
0.979996 -0.011866 0
0.983026 -0.010753 0
0.985704 -0.009686 0
0.988077 -0.008696 0
0.990146 -0.007765 0
0.991924 -0.006876 0
0.993522 -0.006095 0
0.994954 -0.005437 0
0.996121 -0.004771 0
0.997049 -0.004096 0
0.997949 -0.003578 0
0.998926 -0.003278 0
0.999769 -0.003034 0
1.000387 -0.002704 0
1.000891 -0.002350 0
1.001327 -0.002036 0
1.001703 -0.001757 0
1.002026 -0.001509 0
1.002306 -0.001291 0
1.002547 -0.001101 0
1.002754 -0.000937 0
1.002933 -0.000796 0
1.003086 -0.000675 0
1.003216 -0.000572 0
1.003328 -0.000485 0
1.003422 -0.000412 0
1.003503 -0.000350 0
1.003572 -0.000299 0
1.003630 -0.000257 0
1.003679 -0.000223 0
1.003721 -0.000197 0
1.003757 -0.000177 0
1.003787 -0.000165 0
1.003813 -0.000161 0
1.003834 -0.000166 0
1.003849 -0.000182 0
1.003856 -0.000210 0
1.003852 -0.000253 0
1.003826 -0.000307 0
1.003776 -0.000338 0
1.000000 -0.000215 0
0.999993 -0.000909 0
1.000375 -0.001989 0
1.000876 -0.003368 0
1.001523 -0.005169 0
1.002446 -0.007479 0
1.003740 -0.010335 0
1.005462 -0.013767 0
1.007614 -0.017857 0
1.010169 -0.022806 0
1.013241 -0.028876 0
1.016848 -0.036428 0
1.021179 -0.045938 0
1.026452 -0.057978 0
1.032909 -0.073309 0
1.040918 -0.092982 0
1.050816 -0.118738 0
1.065087 -0.152142 0
1.083621 -0.196385 0
1.116698 -0.253932 0
1.163825 -0.319292 0
1.255693 -0.427163 0
1.502472 -0.447952 0
1.576944 -0.334683 0
1.570324 -0.243187 0
1.560487 -0.192218 0
1.544394 -0.171531 0
1.533732 -0.178805 0
1.581982 -0.172929 0
1.695064 -0.095183 0
1.804682 0.067185 0
1.821579 0.253982 0
1.772347 0.399624 0
1.667751 0.480343 0
1.523969 0.495483 0
1.359052 0.468719 0
1.210784 0.424582 0
1.097899 0.364210 0
0.981471 0.299014 0
0.964534 0.248833 0
0.972030 0.208794 0
0.974118 0.157966 0
0.964059 0.097541 0
0.959929 0.052275 0
0.964441 0.029151 0
0.969610 0.020880 0
0.966143 0.019009 0
0.954041 0.018521 0
0.936318 0.010846 0
0.924939 -0.004989 0
0.923020 -0.017241 0
0.926273 -0.022809 0
0.931875 -0.024874 0
0.938412 -0.025302 0
0.945178 -0.024904 0
0.951794 -0.024015 0
0.958037 -0.022817 0
0.963773 -0.021433 0
0.968959 -0.019923 0
0.973608 -0.018337 0
0.977720 -0.016739 0
0.981294 -0.015158 0
0.984408 -0.013636 0
0.987131 -0.012227 0
0.989454 -0.010910 0
0.991416 -0.009649 0
0.993168 -0.008537 0
0.994722 -0.007602 0
0.995972 -0.006684 0
0.996934 -0.005744 0
0.997918 -0.004989 0
0.998912 -0.004551 0
0.999776 -0.004179 0
1.000432 -0.003697 0
1.000938 -0.003216 0
1.001373 -0.002791 0
1.001744 -0.002416 0
1.002062 -0.002083 0
1.002334 -0.001790 0
1.002568 -0.001533 0
1.002769 -0.001310 0
1.002942 -0.001117 0
1.003090 -0.000950 0
1.003218 -0.000808 0
1.003327 -0.000686 0
1.003420 -0.000583 0
1.003499 -0.000495 0
1.003567 -0.000422 0
1.003625 -0.000360 0
1.003673 -0.000309 0
1.003714 -0.000267 0
1.003748 -0.000234 0
1.003776 -0.000209 0
1.003799 -0.000191 0
1.003816 -0.000182 0
1.003827 -0.000181 0
1.003832 -0.000189 0
1.003828 -0.000207 0
1.003811 -0.000234 0
1.003779 -0.000270 0
1.003728 -0.000289 0
1.000000 -0.000144 0
0.999903 -0.001028 0
1.000105 -0.002382 0
1.000463 -0.003809 0
1.000788 -0.005765 0
1.001305 -0.008375 0
1.002136 -0.011607 0
1.003370 -0.015414 0
1.004902 -0.019809 0
1.006436 -0.025076 0
1.008297 -0.031487 0
1.010112 -0.039425 0
1.012160 -0.049482 0
1.014573 -0.062203 0
1.017219 -0.078374 0
1.020359 -0.098913 0
1.021952 -0.126977 0
1.028281 -0.163150 0
1.029404 -0.216185 0
1.050732 -0.286118 0
1.058157 -0.387750 0
1.177146 -0.635009 0
1.501909 -0.628989 0
1.390005 -0.331839 0
1.252426 -0.197207 0
1.147883 -0.150106 0
1.117981 -0.125743 0
0.933963 -0.172665 0
0.929967 -0.261828 0
1.205320 -0.248836 0
1.463754 -0.042386 0
1.543387 0.229495 0
1.577107 0.433902 0
1.566235 0.572237 0
1.502624 0.646882 0
1.400756 0.649044 0
1.275353 0.584531 0
1.127912 0.527689 0
0.999473 0.389044 0
0.924844 0.222782 0
0.861697 0.196593 0
0.819988 0.201430 0
0.802575 0.159215 0
0.800479 0.095192 0
0.806685 0.043287 0
0.816931 0.012454 0
0.830983 -0.002650 0
0.848850 -0.009795 0
0.870660 -0.015633 0
0.888787 -0.022533 0
0.901792 -0.028304 0
0.912738 -0.031660 0
0.922886 -0.033092 0
0.932509 -0.033233 0
0.941565 -0.032498 0
0.949950 -0.031145 0
0.957549 -0.029350 0
0.964281 -0.027284 0
0.970144 -0.025113 0
0.975215 -0.022908 0
0.979580 -0.020687 0
0.983312 -0.018557 0
0.986449 -0.016593 0
0.989057 -0.014735 0
0.991280 -0.012984 0
0.993221 -0.011483 0
0.994814 -0.010186 0
0.996062 -0.008904 0
0.997164 -0.007653 0
0.998185 -0.006721 0
0.999235 -0.006078 0
1.000097 -0.005439 0
1.000701 -0.004802 0
1.001174 -0.004201 0
1.001580 -0.003650 0
1.001925 -0.003160 0
1.002218 -0.002729 0
1.002467 -0.002350 0
1.002679 -0.002019 0
1.002861 -0.001730 0
1.003018 -0.001479 0
1.003152 -0.001262 0
1.003268 -0.001076 0
1.003367 -0.000916 0
1.003452 -0.000779 0
1.003526 -0.000662 0
1.003588 -0.000564 0
1.003641 -0.000480 0
1.003687 -0.000410 0
1.003725 -0.000351 0
1.003756 -0.000303 0
1.003781 -0.000263 0
1.003801 -0.000232 0
1.003816 -0.000209 0
1.003825 -0.000194 0
1.003828 -0.000186 0
1.003824 -0.000187 0
1.003811 -0.000194 0
1.003787 -0.000209 0
1.003750 -0.000229 0
1.003699 -0.000240 0
1.000000 -0.000106 0
1.000012 -0.001000 0
0.999871 -0.002543 0
1.000161 -0.004045 0
1.000111 -0.006006 0
1.000052 -0.008822 0
1.000427 -0.012395 0
1.001207 -0.016527 0
1.002370 -0.020918 0
1.002597 -0.026195 0
1.003594 -0.032547 0
1.003527 -0.040285 0
1.002808 -0.050394 0
1.003601 -0.063032 0
1.002036 -0.079091 0
0.999750 -0.097711 0
0.995971 -0.126656 0
0.990871 -0.159590 0
0.980663 -0.218832 0
0.973308 -0.282681 0
0.944971 -0.445702 0
1.017101 -0.870912 0
0.732314 -0.575612 0
0.000172 0.000000 0
-0.000883 0.000000 0
0.400936 -0.056710 0
0.334285 0.042390 0
0.189203 0.009211 0
0.198503 -0.444285 0
0.440316 -0.628970 0
0.868126 -0.270882 0
1.029070 0.140629 0
1.154584 0.376776 0
1.220693 0.554827 0
1.245007 0.660962 0
1.207059 0.695989 0
1.128488 0.697426 0
1.078164 0.640090 0
1.035461 0.502081 0
0.866106 0.386607 0
0.735525 0.313649 0
0.719994 0.217087 0
0.755026 0.117050 0
0.783801 0.048163 0
0.796169 0.012697 0
0.802044 -0.003420 0
0.810348 -0.012913 0
0.824277 -0.021157 0
0.843025 -0.029093 0
0.862873 -0.036124 0
0.881443 -0.041195 0
0.898302 -0.043906 0
0.913415 -0.044647 0
0.926852 -0.043984 0
0.938752 -0.042348 0
0.949230 -0.040002 0
0.958343 -0.037151 0
0.966154 -0.034031 0
0.972695 -0.030860 0
0.978038 -0.027777 0
0.982487 -0.024840 0
0.986262 -0.022030 0
0.989351 -0.019384 0
0.991693 -0.017062 0
0.993656 -0.015078 0
0.995401 -0.013186 0
0.996772 -0.011383 0
0.997856 -0.009956 0
0.998958 -0.008810 0
0.999947 -0.007819 0
1.000696 -0.006905 0
1.001240 -0.006021 0
1.001665 -0.005261 0
1.002005 -0.004580 0
1.002290 -0.003971 0
1.002530 -0.003434 0
1.002733 -0.002962 0
1.002905 -0.002549 0
1.003052 -0.002189 0
1.003177 -0.001876 0
1.003286 -0.001605 0
1.003379 -0.001371 0
1.003459 -0.001170 0
1.003529 -0.000997 0
1.003589 -0.000849 0
1.003641 -0.000723 0
1.003686 -0.000616 0
1.003724 -0.000525 0
1.003756 -0.000447 0
1.003782 -0.000383 0
1.003804 -0.000328 0
1.003820 -0.000284 0
1.003832 -0.000248 0
1.003838 -0.000219 0
1.003840 -0.000198 0
1.003836 -0.000184 0
1.003824 -0.000176 0
1.003805 -0.000175 0
1.003776 -0.000178 0
1.003735 -0.000186 0
1.003683 -0.000190 0
1.000000 -0.000144 0
1.000113 -0.000884 0
0.999823 -0.002526 0
0.999779 -0.004043 0
0.999677 -0.005650 0
0.999515 -0.008684 0
0.999500 -0.012756 0
0.999210 -0.017352 0
0.999637 -0.021194 0
0.998966 -0.026294 0
0.999471 -0.032412 0
0.996940 -0.038634 0
0.997446 -0.049552 0
0.992086 -0.061426 0
0.991536 -0.074519 0
0.980483 -0.092843 0
0.982508 -0.118093 0
0.953357 -0.147839 0
0.954721 -0.198618 0
0.878570 -0.250422 0
0.879480 -0.431539 0
0.624628 -0.507547 0
0.000000 0.003139 0
-0.596908 0.212104 0
-0.486556 0.000000 0
0.000000 0.000000 0
-0.059056 0.083644 0
0.035001 -0.036882 0
-0.023656 -0.512941 0
0.006167 -0.918459 0
0.229886 -0.631139 0
0.358154 -0.056963 0
0.655765 0.242279 0
0.806064 0.481815 0
0.879312 0.660517 0
0.921049 0.765563 0
0.960259 0.713426 0
0.954077 0.620715 0
0.852341 0.601101 0
0.749363 0.522716 0
0.742877 0.342704 0
0.764192 0.181928 0
0.758388 0.095406 0
0.736886 0.054047 0
0.721226 0.025043 0
0.722554 -0.001726 0
0.740326 -0.024885 0
0.768508 -0.042475 0
0.800906 -0.054231 0
0.832591 -0.060954 0
0.861064 -0.063736 0
0.885743 -0.063634 0
0.906712 -0.061644 0
0.924284 -0.058573 0
0.938944 -0.054879 0
0.951252 -0.050739 0
0.961660 -0.046277 0
0.970440 -0.041639 0
0.977444 -0.037001 0
0.982619 -0.032704 0
0.986766 -0.028915 0
0.990360 -0.025424 0
0.993236 -0.022028 0
0.995103 -0.019044 0
0.996797 -0.016696 0
0.998225 -0.014603 0
0.999385 -0.012644 0
1.000373 -0.011093 0
1.001129 -0.009749 0
1.001711 -0.008463 0
1.002096 -0.007375 0
1.002418 -0.006412 0
1.002668 -0.005570 0
1.002864 -0.004830 0
1.003023 -0.004179 0
1.003155 -0.003608 0
1.003264 -0.003109 0
1.003357 -0.002674 0
1.003436 -0.002296 0
1.003504 -0.001968 0
1.003563 -0.001685 0
1.003615 -0.001440 0
1.003660 -0.001230 0
1.003699 -0.001050 0
1.003734 -0.000895 0
1.003764 -0.000763 0
1.003790 -0.000650 0
1.003812 -0.000554 0
1.003830 -0.000472 0
1.003845 -0.000403 0
1.003856 -0.000345 0
1.003863 -0.000296 0
1.003867 -0.000255 0
1.003866 -0.000222 0
1.003861 -0.000195 0
1.003850 -0.000175 0
1.003833 -0.000160 0
1.003808 -0.000150 0
1.003775 -0.000144 0
1.003732 -0.000141 0
1.003679 -0.000139 0
1.000000 -0.000207 0
1.000084 -0.000808 0
0.999823 -0.002203 0
0.999513 -0.003893 0
0.999604 -0.005736 0
0.999536 -0.008639 0
0.998973 -0.012084 0
0.998476 -0.016659 0
0.997177 -0.020669 0
0.997549 -0.026024 0
0.994756 -0.030516 0
0.994679 -0.038254 0
0.990816 -0.045535 0
0.987517 -0.057118 0
0.979891 -0.067484 0
0.975627 -0.088678 0
0.958316 -0.099526 0
0.944600 -0.131799 0
0.909143 -0.144041 0
0.855303 -0.207437 0
0.787792 -0.191756 0
0.472303 -0.068583 0
0.363984 -0.028137 0
0.000000 0.000000 0
0.000000 0.000000 0
0.000000 0.000000 0
0.000000 0.000000 0
0.078602 -0.031231 0
-0.034318 -0.415450 0
-0.160373 -0.882512 0
-0.433943 -0.622869 0
-0.276596 -0.285249 0
0.143629 -0.071134 0
0.354634 0.331280 0
0.536560 0.545978 0
0.690312 0.615042 0
0.761596 0.664396 0
0.699944 0.748007 0
0.664170 0.706795 0
0.725480 0.496071 0
0.744690 0.298819 0
0.683096 0.201575 0
0.623107 0.144354 0
0.601842 0.085323 0
0.612546 0.027028 0
0.645303 -0.022521 0
0.690167 -0.058869 0
0.738487 -0.081739 0
0.784503 -0.093179 0