# vtk DataFile Version 2.0
generated by CFD-lab course output (written by Tobias Neckel) 
ASCII

DATASET STRUCTURED_GRID
DIMENSIONS  101 21 1 
POINTS 2121 float

0.000000 0.000000 0
0.100000 0.000000 0
0.200000 0.000000 0
0.300000 0.000000 0
0.400000 0.000000 0
0.500000 0.000000 0
0.600000 0.000000 0
0.700000 0.000000 0
0.800000 0.000000 0
0.900000 0.000000 0
1.000000 0.000000 0
1.100000 0.000000 0
1.200000 0.000000 0
1.300000 0.000000 0
1.400000 0.000000 0
1.500000 0.000000 0
1.600000 0.000000 0
1.700000 0.000000 0
1.800000 0.000000 0
1.900000 0.000000 0
2.000000 0.000000 0
2.100000 0.000000 0
2.200000 0.000000 0
2.300000 0.000000 0
2.400000 0.000000 0
2.500000 0.000000 0
2.600000 0.000000 0
2.700000 0.000000 0
2.800000 0.000000 0
2.900000 0.000000 0
3.000000 0.000000 0
3.100000 0.000000 0
3.200000 0.000000 0
3.300000 0.000000 0
3.400000 0.000000 0
3.500000 0.000000 0
3.600000 0.000000 0
3.700000 0.000000 0
3.800000 0.000000 0
3.900000 0.000000 0
4.000000 0.000000 0
4.100000 0.000000 0
4.200000 0.000000 0
4.300000 0.000000 0
4.400000 0.000000 0
4.500000 0.000000 0
4.600000 0.000000 0
4.700000 0.000000 0
4.800000 0.000000 0
4.900000 0.000000 0
5.000000 0.000000 0
5.100000 0.000000 0
5.200000 0.000000 0
5.300000 0.000000 0
5.400000 0.000000 0
5.500000 0.000000 0
5.600000 0.000000 0
5.700000 0.000000 0
5.800000 0.000000 0
5.900000 0.000000 0
6.000000 0.000000 0
6.100000 0.000000 0
6.200000 0.000000 0
6.300000 0.000000 0
6.400000 0.000000 0
6.500000 0.000000 0
6.600000 0.000000 0
6.700000 0.000000 0
6.800000 0.000000 0
6.900000 0.000000 0
7.000000 0.000000 0
7.100000 0.000000 0
7.200000 0.000000 0
7.300000 0.000000 0
7.400000 0.000000 0
7.500000 0.000000 0
7.600000 0.000000 0
7.700000 0.000000 0
7.800000 0.000000 0
7.900000 0.000000 0
8.000000 0.000000 0
8.100000 0.000000 0
8.200000 0.000000 0
8.300000 0.000000 0
8.400000 0.000000 0
8.500000 0.000000 0
8.600000 0.000000 0
8.700000 0.000000 0
8.800000 0.000000 0
8.900000 0.000000 0
9.000000 0.000000 0
9.100000 0.000000 0
9.200000 0.000000 0
9.300000 0.000000 0
9.400000 0.000000 0
9.500000 0.000000 0
9.600000 0.000000 0
9.700000 0.000000 0
9.800000 0.000000 0
9.900000 0.000000 0
10.000000 0.000000 0
0.000000 0.100000 0
0.100000 0.100000 0
0.200000 0.100000 0
0.300000 0.100000 0
0.400000 0.100000 0
0.500000 0.100000 0
0.600000 0.100000 0
0.700000 0.100000 0
0.800000 0.100000 0
0.900000 0.100000 0
1.000000 0.100000 0
1.100000 0.100000 0
1.200000 0.100000 0
1.300000 0.100000 0
1.400000 0.100000 0
1.500000 0.100000 0
1.600000 0.100000 0
1.700000 0.100000 0
1.800000 0.100000 0
1.900000 0.100000 0
2.000000 0.100000 0
2.100000 0.100000 0
2.200000 0.100000 0
2.300000 0.100000 0
2.400000 0.100000 0
2.500000 0.100000 0
2.600000 0.100000 0
2.700000 0.100000 0
2.800000 0.100000 0
2.900000 0.100000 0
3.000000 0.100000 0
3.100000 0.100000 0
3.200000 0.100000 0
3.300000 0.100000 0
3.400000 0.100000 0
3.500000 0.100000 0
3.600000 0.100000 0
3.700000 0.100000 0
3.800000 0.100000 0
3.900000 0.100000 0
4.000000 0.100000 0
4.100000 0.100000 0
4.200000 0.100000 0
4.300000 0.100000 0
4.400000 0.100000 0
4.500000 0.100000 0
4.600000 0.100000 0
4.700000 0.100000 0
4.800000 0.100000 0
4.900000 0.100000 0
5.000000 0.100000 0
5.100000 0.100000 0
5.200000 0.100000 0
5.300000 0.100000 0
5.400000 0.100000 0
5.500000 0.100000 0
5.600000 0.100000 0
5.700000 0.100000 0
5.800000 0.100000 0
5.900000 0.100000 0
6.000000 0.100000 0
6.100000 0.100000 0
6.200000 0.100000 0
6.300000 0.100000 0
6.400000 0.100000 0
6.500000 0.100000 0
6.600000 0.100000 0
6.700000 0.100000 0
6.800000 0.100000 0
6.900000 0.100000 0
7.000000 0.100000 0
7.100000 0.100000 0
7.200000 0.100000 0
7.300000 0.100000 0
7.400000 0.100000 0
7.500000 0.100000 0
7.600000 0.100000 0
7.700000 0.100000 0
7.800000 0.100000 0
7.900000 0.100000 0
8.000000 0.100000 0
8.100000 0.100000 0
8.200000 0.100000 0
8.300000 0.100000 0
8.400000 0.100000 0
8.500000 0.100000 0
8.600000 0.100000 0
8.700000 0.100000 0
8.800000 0.100000 0
8.900000 0.100000 0
9.000000 0.100000 0
9.100000 0.100000 0
9.200000 0.100000 0
9.300000 0.100000 0
9.400000 0.100000 0
9.500000 0.100000 0
9.600000 0.100000 0
9.700000 0.100000 0
9.800000 0.100000 0
9.900000 0.100000 0
10.000000 0.100000 0
0.000000 0.200000 0
0.100000 0.200000 0
0.200000 0.200000 0
0.300000 0.200000 0
0.400000 0.200000 0
0.500000 0.200000 0
0.600000 0.200000 0
0.700000 0.200000 0
0.800000 0.200000 0
0.900000 0.200000 0
1.000000 0.200000 0
1.100000 0.200000 0
1.200000 0.200000 0
1.300000 0.200000 0
1.400000 0.200000 0
1.500000 0.200000 0
1.600000 0.200000 0
1.700000 0.200000 0
1.800000 0.200000 0
1.900000 0.200000 0
2.000000 0.200000 0
2.100000 0.200000 0
2.200000 0.200000 0
2.300000 0.200000 0
2.400000 0.200000 0
2.500000 0.200000 0
2.600000 0.200000 0
2.700000 0.200000 0
2.800000 0.200000 0
2.900000 0.200000 0
3.000000 0.200000 0
3.100000 0.200000 0
3.200000 0.200000 0
3.300000 0.200000 0
3.400000 0.200000 0
3.500000 0.200000 0
3.600000 0.200000 0
3.700000 0.200000 0
3.800000 0.200000 0
3.900000 0.200000 0
4.000000 0.200000 0
4.100000 0.200000 0
4.200000 0.200000 0
4.300000 0.200000 0
4.400000 0.200000 0
4.500000 0.200000 0
4.600000 0.200000 0
4.700000 0.200000 0
4.800000 0.200000 0
4.900000 0.200000 0
5.000000 0.200000 0
5.100000 0.200000 0
5.200000 0.200000 0
5.300000 0.200000 0
5.400000 0.200000 0
5.500000 0.200000 0
5.600000 0.200000 0
5.700000 0.200000 0
5.800000 0.200000 0
5.900000 0.200000 0
6.000000 0.200000 0
6.100000 0.200000 0
6.200000 0.200000 0
6.300000 0.200000 0
6.400000 0.200000 0
6.500000 0.200000 0
6.600000 0.200000 0
6.700000 0.200000 0
6.800000 0.200000 0
6.900000 0.200000 0
7.000000 0.200000 0
7.100000 0.200000 0
7.200000 0.200000 0
7.300000 0.200000 0
7.400000 0.200000 0
7.500000 0.200000 0
7.600000 0.200000 0
7.700000 0.200000 0
7.800000 0.200000 0
7.900000 0.200000 0
8.000000 0.200000 0
8.100000 0.200000 0
8.200000 0.200000 0
8.300000 0.200000 0
8.400000 0.200000 0
8.500000 0.200000 0
8.600000 0.200000 0
8.700000 0.200000 0
8.800000 0.200000 0
8.900000 0.200000 0
9.000000 0.200000 0
9.100000 0.200000 0
9.200000 0.200000 0
9.300000 0.200000 0
9.400000 0.200000 0
9.500000 0.200000 0
9.600000 0.200000 0
9.700000 0.200000 0
9.800000 0.200000 0
9.900000 0.200000 0
10.000000 0.200000 0
0.000000 0.300000 0
0.100000 0.300000 0
0.200000 0.300000 0
0.300000 0.300000 0
0.400000 0.300000 0
0.500000 0.300000 0
0.600000 0.300000 0
0.700000 0.300000 0
0.800000 0.300000 0
0.900000 0.300000 0
1.000000 0.300000 0
1.100000 0.300000 0
1.200000 0.300000 0
1.300000 0.300000 0
1.400000 0.300000 0
1.500000 0.300000 0
1.600000 0.300000 0
1.700000 0.300000 0
1.800000 0.300000 0
1.900000 0.300000 0
2.000000 0.300000 0
2.100000 0.300000 0
2.200000 0.300000 0
2.300000 0.300000 0
2.400000 0.300000 0
2.500000 0.300000 0
2.600000 0.300000 0
2.700000 0.300000 0
2.800000 0.300000 0
2.900000 0.300000 0
3.000000 0.300000 0
3.100000 0.300000 0
3.200000 0.300000 0
3.300000 0.300000 0
3.400000 0.300000 0
3.500000 0.300000 0
3.600000 0.300000 0
3.700000 0.300000 0
3.800000 0.300000 0
3.900000 0.300000 0
4.000000 0.300000 0
4.100000 0.300000 0
4.200000 0.300000 0
4.300000 0.300000 0
4.400000 0.300000 0
4.500000 0.300000 0
4.600000 0.300000 0
4.700000 0.300000 0
4.800000 0.300000 0
4.900000 0.300000 0
5.000000 0.300000 0
5.100000 0.300000 0
5.200000 0.300000 0
5.300000 0.300000 0
5.400000 0.300000 0
5.500000 0.300000 0
5.600000 0.300000 0
5.700000 0.300000 0
5.800000 0.300000 0
5.900000 0.300000 0
6.000000 0.300000 0
6.100000 0.300000 0
6.200000 0.300000 0
6.300000 0.300000 0
6.400000 0.300000 0
6.500000 0.300000 0
6.600000 0.300000 0
6.700000 0.300000 0
6.800000 0.300000 0
6.900000 0.300000 0
7.000000 0.300000 0
7.100000 0.300000 0
7.200000 0.300000 0
7.300000 0.300000 0
7.400000 0.300000 0
7.500000 0.300000 0
7.600000 0.300000 0
7.700000 0.300000 0
7.800000 0.300000 0
7.900000 0.300000 0
8.000000 0.300000 0
8.100000 0.300000 0
8.200000 0.300000 0
8.300000 0.300000 0
8.400000 0.300000 0
8.500000 0.300000 0
8.600000 0.300000 0
8.700000 0.300000 0
8.800000 0.300000 0
8.900000 0.300000 0
9.000000 0.300000 0
9.100000 0.300000 0
9.200000 0.300000 0
9.300000 0.300000 0
9.400000 0.300000 0
9.500000 0.300000 0
9.600000 0.300000 0
9.700000 0.300000 0
9.800000 0.300000 0
9.900000 0.300000 0
10.000000 0.300000 0
0.000000 0.400000 0
0.100000 0.400000 0
0.200000 0.400000 0
0.300000 0.400000 0
0.400000 0.400000 0
0.500000 0.400000 0
0.600000 0.400000 0
0.700000 0.400000 0
0.800000 0.400000 0
0.900000 0.400000 0
1.000000 0.400000 0
1.100000 0.400000 0
1.200000 0.400000 0
1.300000 0.400000 0
1.400000 0.400000 0
1.500000 0.400000 0
1.600000 0.400000 0
1.700000 0.400000 0
1.800000 0.400000 0
1.900000 0.400000 0
2.000000 0.400000 0
2.100000 0.400000 0
2.200000 0.400000 0
2.300000 0.400000 0
2.400000 0.400000 0
2.500000 0.400000 0
2.600000 0.400000 0
2.700000 0.400000 0
2.800000 0.400000 0
2.900000 0.400000 0
3.000000 0.400000 0
3.100000 0.400000 0
3.200000 0.400000 0
3.300000 0.400000 0
3.400000 0.400000 0
3.500000 0.400000 0
3.600000 0.400000 0
3.700000 0.400000 0
3.800000 0.400000 0
3.900000 0.400000 0
4.000000 0.400000 0
4.100000 0.400000 0
4.200000 0.400000 0
4.300000 0.400000 0
4.400000 0.400000 0
4.500000 0.400000 0
4.600000 0.400000 0
4.700000 0.400000 0
4.800000 0.400000 0
4.900000 0.400000 0
5.000000 0.400000 0
5.100000 0.400000 0
5.200000 0.400000 0
5.300000 0.400000 0
5.400000 0.400000 0
5.500000 0.400000 0
5.600000 0.400000 0
5.700000 0.400000 0
5.800000 0.400000 0
5.900000 0.400000 0
6.000000 0.400000 0
6.100000 0.400000 0
6.200000 0.400000 0
6.300000 0.400000 0
6.400000 0.400000 0
6.500000 0.400000 0
6.600000 0.400000 0
6.700000 0.400000 0
6.800000 0.400000 0
6.900000 0.400000 0
7.000000 0.400000 0
7.100000 0.400000 0
7.200000 0.400000 0
7.300000 0.400000 0
7.400000 0.400000 0
7.500000 0.400000 0
7.600000 0.400000 0
7.700000 0.400000 0
7.800000 0.400000 0
7.900000 0.400000 0
8.000000 0.400000 0
8.100000 0.400000 0
8.200000 0.400000 0
8.300000 0.400000 0
8.400000 0.400000 0
8.500000 0.400000 0
8.600000 0.400000 0
[...]
POINT_DATA 2121 

VECTORS velocity float
0.500000 0.000000 0
0.000005 0.000000 0
0.000016 0.000000 0
0.000036 0.000000 0
0.000065 0.000000 0
0.000102 0.000000 0
0.000148 0.000000 0
0.000203 0.000000 0
0.000281 0.000000 0
0.000321 0.000000 0
0.000393 0.000000 0
0.000472 0.000000 0
0.000556 0.000000 0
0.000650 0.000000 0
0.000757 0.000000 0
0.000883 0.000000 0
0.001027 0.000000 0
0.001187 0.000000 0
0.001363 0.000000 0
0.001552 0.000000 0
0.001747 0.000000 0
0.001935 0.000000 0
0.002084 0.000000 0
0.002143 0.000000 0
0.002060 0.000000 0
0.001838 0.000000 0
0.001486 0.000000 0
0.001020 0.000000 0
0.000437 0.000000 0
-0.000308 0.000000 0
-0.001256 0.000000 0
-0.002383 0.000000 0
-0.003580 0.000000 0
-0.004671 0.000000 0
-0.005455 0.000000 0
-0.005739 0.000000 0
-0.005212 0.000000 0
-0.003655 0.000000 0
-0.001469 0.000000 0
0.000742 0.000000 0
0.002628 0.000000 0
0.004117 0.000000 0
0.005268 0.000000 0
0.005895 0.000000 0
0.005679 0.000000 0
0.006938 0.000000 0
0.010845 0.000000 0
-0.007288 0.000000 0
-0.022749 0.000000 0
0.022500 0.000000 0
0.046483 0.000000 0
0.021628 0.000000 0
0.008656 0.000000 0
0.002537 0.000000 0
-0.004760 0.000000 0
-0.013569 0.000000 0
-0.019177 0.000000 0
-0.018104 0.000000 0
-0.017786 0.000000 0
-0.019930 0.000000 0
-0.017964 0.000000 0
-0.015540 0.000000 0
-0.011802 0.000000 0
-0.004961 0.000000 0
0.004605 0.000000 0
0.014968 0.000000 0
0.027685 0.000000 0
0.047373 0.000000 0
0.021342 0.000000 0
0.003657 0.000000 0
-0.004377 0.000000 0
0.000640 0.000000 0
0.004817 0.000000 0
0.005779 0.000000 0
0.005032 0.000000 0
0.003979 0.000000 0
0.003008 0.000000 0
0.002366 0.000000 0
0.001743 0.000000 0
0.000989 0.000000 0
0.000111 0.000000 0
-0.000932 0.000000 0
-0.002126 0.000000 0
-0.003427 0.000000 0
-0.004906 0.000000 0
-0.006846 0.000000 0
-0.009267 0.000000 0
-0.011536 0.000000 0
-0.013493 0.000000 0
-0.014484 0.000000 0
-0.014113 0.000000 0
-0.012781 0.000000 0
-0.015480 0.000000 0
-0.017939 0.000000 0
-0.019720 0.000000 0
-0.020564 0.000000 0
-0.020587 0.000000 0
-0.019570 0.000000 0
-0.018430 0.000000 0
-0.016882 0.000000 0
-0.015836 0.000000 0
1.000000 0.000294 0
1.000080 0.000607 0
1.000317 0.000557 0
1.000760 0.000378 0
1.001447 0.000134 0
1.002419 -0.000170 0
1.003735 -0.000559 0
1.005483 -0.001105 0
1.007792 -0.001788 0
1.010811 -0.002628 0
1.014752 -0.003728 0
1.019891 -0.005173 0
1.026598 -0.007077 0
1.035342 -0.009537 0
1.046714 -0.012659 0
1.061444 -0.016556 0
1.080390 -0.021315 0
1.104505 -0.026920 0
1.134713 -0.033127 0
1.171647 -0.039316 0
1.215187 -0.044338 0
1.263648 -0.046577 0
1.313412 -0.044267 0
1.357675 -0.037109 0
1.391530 -0.026920 0
1.413458 -0.015918 0
1.424128 -0.005538 0
1.424906 0.003615 0
1.417107 0.011195 0
1.402191 0.016547 0
1.382614 0.018576 0
1.362434 0.016224 0
1.346947 0.009199 0
1.341534 -0.001360 0
1.349474 -0.012739 0
1.370151 -0.021210 0
1.398711 -0.022768 0
1.425009 -0.015173 0
1.437531 -0.000434 0
1.431447 0.016818 0
1.407980 0.033009 0
1.369970 0.046664 0
1.320407 0.057233 0
1.263162 0.062293 0
1.202523 0.063962 0
1.138020 0.080587 0
1.080550 0.076984 0
1.087508 -0.079118 0
1.010079 -0.166983 0
0.755571 0.102297 0
0.531083 0.289267 0
0.453356 0.172945 0
0.433301 0.067290 0
0.420860 0.026313 0
0.430672 -0.029488 0
0.485830 -0.100880 0
0.588442 -0.147238 0
0.745912 -0.145929 0
0.940973 -0.134909 0
1.101626 -0.136843 0
1.228082 -0.125906 0
1.330376 -0.102640 0
1.405870 -0.069538 0
1.448848 -0.019015 0
1.446046 0.048613 0
1.382809 0.127656 0
1.247247 0.238921 0
1.049330 0.307406 0
0.880074 0.206514 0
0.827878 0.046395 0
0.787185 -0.022246 0
0.700116 -0.011959 0
0.615904 0.018683 0
0.554108 0.032661 0
0.510651 0.032493 0
0.475224 0.029557 0
0.448973 0.026965 0
0.426550 0.023261 0
0.407603 0.018063 0
0.393472 0.012474 0
0.385441 0.007057 0
0.381344 0.000529 0
0.383002 -0.007382 0
0.390161 -0.015788 0
0.404162 -0.025068 0
0.427709 -0.038457 0
0.462593 -0.055142 0
0.513542 -0.071054 0
0.582242 -0.083382 0
0.667363 -0.089993 0
0.765930 -0.087628 0
0.869573 -0.080073 0
0.969343 -0.085844 0
1.062819 -0.100295 0
1.161623 -0.107516 0
1.266186 -0.108618 0
1.367763 -0.102574 0
1.461513 -0.089845 0
1.541483 -0.072234 0
1.603513 -0.048186 0
1.636693 -0.032735 0
1.000000 -0.000084 0
1.000642 -0.000323 0
1.001653 -0.000685 0
1.002954 -0.001136 0
1.004527 -0.001664 0
1.006389 -0.002292 0
1.008582 -0.003069 0
1.011169 -0.004063 0
1.014212 -0.005332 0
1.017897 -0.006963 0
1.022395 -0.009084 0
1.027959 -0.011849 0
1.034893 -0.015453 0
1.043611 -0.020119 0
1.054670 -0.026103 0
1.068803 -0.033675 0
1.086940 -0.043060 0
1.110204 -0.054321 0
1.139910 -0.067139 0
1.177393 -0.080469 0
1.223651 -0.091995 0
1.277650 -0.098217 0
1.337082 -0.094018 0
1.388665 -0.078108 0
1.425348 -0.055772 0
1.447085 -0.032586 0
1.456566 -0.011435 0
1.456179 0.007035 0
1.446972 0.022729 0
1.429225 0.034507 0
1.404548 0.039771 0
1.377454 0.035681 0
1.354851 0.020913 0
1.345136 -0.002514 0
1.354488 -0.028604 0
1.382342 -0.049225 0
1.422829 -0.054845 0
1.462559 -0.038807 0
1.483221 -0.006426 0
1.480018 0.029562 0
1.457992 0.061488 0
1.421846 0.087585 0
1.375508 0.106820 0
1.321666 0.117894 0
1.258966 0.125152 0
1.191882 0.121984 0
1.154579 0.050522 0
1.109055 0.070481 0
0.775762 0.331947 0
0.412659 0.479005 0
0.386863 0.302223 0
0.444407 0.097790 0
0.462321 0.032505 0
0.502666 0.002638 0
0.558775 -0.064962 0
0.594285 -0.157763 0
0.592396 -0.260074 0
0.604586 -0.352523 0
0.761742 -0.355707 0
0.959620 -0.287102 0
1.082819 -0.228743 0
1.154023 -0.177781 0
1.203189 -0.118465 0
1.231481 -0.040170 0
1.236808 0.066046 0
1.211905 0.198806 0
1.154260 0.333484 0
1.115028 0.367178 0
1.078542 0.221457 0
0.977483 0.092894 0
0.831384 0.127767 0
0.676770 0.171286 0
0.566257 0.146012 0
0.497763 0.105256 0
0.452861 0.078886 0
0.413688 0.061679 0
0.395823 0.048674 0
0.386973 0.041370 0
0.376641 0.033077 0
0.368796 0.022160 0
0.366564 0.012126 0
0.367745 0.002435 0
0.371114 -0.008822 0
0.377139 -0.021166 0
0.386404 -0.037554 0
0.398065 -0.058438 0
0.412204 -0.085841 0
0.431585 -0.119658 0
0.463485 -0.153831 0
0.513211 -0.183698 0
0.587094 -0.202221 0
0.690031 -0.203426 0
0.812684 -0.193259 0
0.930018 -0.192292 0
1.036223 -0.203381 0
1.128524 -0.206154 0
1.215775 -0.195341 0
1.298082 -0.173734 0
1.368009 -0.142014 0
1.423845 -0.095224 0
1.454793 -0.064229 0
1.000000 -0.000352 0
1.000470 -0.001051 0
1.001308 -0.001758 0
1.002444 -0.002499 0
1.003842 -0.003304 0
1.005501 -0.004228 0
1.007443 -0.005342 0
1.009713 -0.006738 0
1.012378 -0.008518 0
1.015558 -0.010813 0
1.019397 -0.013793 0
1.024089 -0.017673 0
1.029887 -0.022731 0
1.037145 -0.029315 0
1.046360 -0.037852 0
1.058252 -0.048827 0
1.073808 -0.062716 0
1.094361 -0.079890 0
1.121795 -0.100315 0
1.158588 -0.123056 0
1.208199 -0.144593 0
1.270452 -0.160005 0
1.352924 -0.155278 0
1.418724 -0.125371 0
1.457818 -0.085336 0
1.476025 -0.047132 0
1.481125 -0.014627 0
1.477690 0.013214 0
1.465925 0.038154 0
1.442799 0.058976 0
1.407606 0.070352 0
1.365935 0.065926 0
1.327156 0.041521 0
1.306332 -0.000994 0
1.317579 -0.049941 0
1.357088 -0.089546 0
1.413622 -0.102981 0
1.472664 -0.075561 0
1.510301 -0.017889 0
1.515192 0.042051 0
1.489587 0.091185 0
1.445503 0.129152 0
1.392183 0.157416 0
1.336262 0.178840 0
1.278614 0.193749 0
1.221946 0.184978 0
1.154577 0.159814 0
1.003559 0.299703 0
0.821072 0.529417 0
0.805140 0.491200 0
0.887166 0.257522 0
0.934296 0.097490 0
0.917595 0.009035 0
0.936350 -0.070137 0
0.991179 -0.121104 0
1.049658 -0.134498 0
1.075462 -0.157536 0
1.008655 -0.315272 0
0.881389 -0.489939 0
0.872888 -0.457917 0
0.947934 -0.320306 0
1.015238 -0.223008 0
1.054946 -0.146994 0
1.070481 -0.052631 0
1.071603 0.068192 0
1.061011 0.210207 0
1.052557 0.335800 0
1.074790 0.383126 0
1.068349 0.344061 0
0.886367 0.293556 0
0.688602 0.278469 0
0.599286 0.253168 0
0.539165 0.197691 0
0.490742 0.146058 0
0.458519 0.116568 0
0.421022 0.086595 0
0.431556 0.053681 0
0.444353 0.042443 0
0.433221 0.036238 0
0.433637 0.022550 0
0.441578 0.008107 0
0.453305 -0.004023 0
0.468430 -0.016778 0
0.490766 -0.031080 0
0.521159 -0.045997 0
0.555117 -0.064260 0
0.584704 -0.088666 0
0.594920 -0.122338 0
0.584421 -0.165013 0
0.568830 -0.213607 0
0.557283 -0.264452 0
0.578375 -0.305666 0
0.639415 -0.325836 0
0.739112 -0.323839 0
0.854665 -0.306027 0
0.960921 -0.288175 0
1.048153 -0.272138 0
1.114863 -0.242084 0
1.169255 -0.198001 0
1.213693 -0.134974 0
1.239344 -0.093103 0
1.000000 -0.000558 0
1.000359 -0.001638 0
1.001045 -0.002663 0
1.002002 -0.003673 0
1.003188 -0.004725 0
1.004587 -0.005896 0
1.006207 -0.007284 0
1.008074 -0.009002 0
1.010236 -0.011182 0
1.012764 -0.013985 0
1.015755 -0.017617 0
1.019334 -0.022341 0
1.023669 -0.028512 0
1.029015 -0.036594 0
1.035734 -0.047212 0
1.044489 -0.061125 0
1.056262 -0.079171 0
1.072400 -0.102308 0
1.095293 -0.131366 0
1.128652 -0.166873 0
1.180270 -0.203857 0
1.251042 -0.242940 0
1.390077 -0.242287 0
1.475408 -0.182999 0
1.510888 -0.113069 0
1.517843 -0.055889 0
1.514194 -0.013097 0
1.508955 0.022238 0
1.496190 0.057624 0
1.468827 0.092831 0
1.418175 0.116639 0
1.352665 0.116134 0
1.282872 0.080520 0
1.234505 0.007068 0
1.244831 -0.079356 0
1.293508 -0.145264 0
1.357277 -0.170417 0
1.429781 -0.135483 0
1.498450 -0.048950 0
1.530764 0.050280 0
1.523165 0.131181 0
1.486777 0.184993 0
1.427043 0.216065 0
1.353506 0.231467 0
1.279054 0.239471 0
1.210169 0.246024 0
1.126734 0.268913 0
1.012469 0.403989 0
0.995392 0.530369 0
1.097459 0.412915 0
1.225754 0.173071 0
1.148047 0.067364 0
1.017318 0.030454 0
1.003808 -0.070942 0
1.011026 -0.178267 0
1.003148 -0.242043 0
1.040181 -0.219068 0
1.070117 -0.158447 0
0.959457 -0.219937 0
0.825037 -0.353644 0
0.800404 -0.371090 0
0.841935 -0.284791 0
0.883786 -0.173706 0
0.908224 -0.056824 0
0.915629 0.075518 0
0.920094 0.217854 0
0.946987 0.319708 0
0.992281 0.351389 0
0.988443 0.409883 0
0.900710 0.472644 0
0.805601 0.414849 0
0.707348 0.320724 0
0.621578 0.254557 0
0.648406 0.185903 0
0.755040 0.148607 0
0.816165 0.088643 0
0.722878 0.025344 0
0.581329 0.039705 0
0.514777 0.043792 0
0.515066 0.013803 0
0.535801 -0.007543 0
0.545831 -0.024419 0
0.549557 -0.046285 0
0.560130 -0.073897 0
0.587470 -0.101908 0
0.637647 -0.121985 0
0.706236 -0.125647 0
0.781632 -0.119379 0
0.838574 -0.127744 0
0.855633 -0.156564 0
0.831061 -0.211770 0
0.774064 -0.285562 0
0.710344 -0.354000 0
0.680936 -0.407546 0
0.715244 -0.425195 0
0.792015 -0.399647 0
0.875355 -0.349288 0
0.942344 -0.294841 0
0.996025 -0.240848 0
1.031213 -0.165317 0
1.047139 -0.114665 0
1.000000 -0.000716 0
1.000254 -0.002103 0
1.000800 -0.003405 0
1.001586 -0.004646 0
1.002543 -0.005893 0
1.003650 -0.007250 0
1.004902 -0.008833 0
1.006308 -0.010770 0
1.007890 -0.013212 0
1.009668 -0.016337 0
1.011689 -0.020367 0
1.013989 -0.025591 0
1.016616 -0.032415 0
1.019700 -0.041382 0
1.023293 -0.053329 0
1.027940 -0.069357 0
1.034593 -0.090629 0
1.044048 -0.118923 0
1.058938 -0.156568 0
1.083231 -0.208033 0
1.128159 -0.266983 0
1.209242 -0.369812 0
1.460258 -0.379641 0
1.539053 -0.246179 0
1.546269 -0.127767 0
1.530966 -0.050433 0
1.506331 -0.005735 0
1.501554 0.031222 0
1.495714 0.078286 0
1.480537 0.136994 0
1.416914 0.186518 0
1.328085 0.201233 0
1.180985 0.159685 0
1.086551 0.037051 0
1.061473 -0.108940 0
1.069919 -0.201989 0
1.082980 -0.239250 0
1.158603 -0.216730 0
1.271446 -0.118868 0
1.357690 0.017339 0
1.401062 0.135176 0
1.423227 0.225277 0
1.413505 0.290691 0
1.369782 0.326832 0
1.300695 0.337090 0
1.217660 0.337302 0
1.126565 0.357518 0
1.040528 0.431049 0
1.125681 0.444430 0
1.314748 0.260840 0
1.133310 0.206938 0
0.879153 0.305929 0
0.836073 0.153277 0
0.692015 -0.063842 0
0.498672 -0.120441 0
0.389417 -0.163649 0
0.364775 -0.224502 0
0.438352 -0.234546 0
0.566549 -0.244856 0
0.626343 -0.298860 0
0.634949 -0.337201 0
0.656845 -0.306387 0
0.696156 -0.213280 0
0.739559 -0.084472 0
0.780140 0.056325 0
0.826478 0.178852 0
0.885527 0.263615 0
0.925362 0.341672 0
0.920350 0.435633 0
0.945094 0.476399 0
0.968527 0.471834 0
0.932474 0.437194 0
0.908815 0.256633 0
0.914289 0.012597 0
0.932844 -0.051190 0
0.921098 0.118758 0
0.764767 0.288518 0
0.600840 0.250544 0
0.537569 0.102501 0
0.556094 0.001525 0
0.619613 -0.022659 0
0.675125 -0.017781 0
0.681749 -0.031079 0
0.645394 -0.068995 0
0.605217 -0.123515 0
0.590174 -0.183028 0
0.613401 -0.232654 0
0.682245 -0.254679 0
0.786948 -0.239017 0
0.892830 -0.206098 0
0.975444 -0.182886 0
0.997207 -0.184953 0
0.970664 -0.232712 0
0.905169 -0.328743 0
0.809581 -0.417110 0
0.757599 -0.448290 0
0.761845 -0.422470 0
0.793828 -0.362758 0
0.829598 -0.286874 0
0.855151 -0.186092 0
0.862286 -0.124220 0
1.000000 -0.000818 0
1.000081 -0.002446 0
1.000523 -0.004000 0
1.001184 -0.005421 0
1.001904 -0.006792 0
1.002703 -0.008260 0
1.003564 -0.009948 0
1.004479 -0.011994 0
1.005452 -0.014545 0
1.006432 -0.017789 0
1.007450 -0.021943 0
1.008429 -0.027272 0
1.009258 -0.034226 0
1.010191 -0.043275 0
1.010597 -0.055455 0
1.010670 -0.072428 0
1.011315 -0.095282 0
1.012135 -0.126655 0
1.014205 -0.170551 0
1.026453 -0.236095 0
1.037194 -0.329868 0
1.143127 -0.575039 0
1.476111 -0.572097 0
1.412075 -0.269007 0
1.323686 -0.104977 0
1.287708 -0.015948 0
1.238538 0.016319 0
1.202226 0.032860 0
1.238828 0.078646 0
1.322589 0.171634 0
1.263391 0.269094 0
1.221259 0.352067 0
1.124143 0.322058 0
0.832010 0.126584 0
0.439977 -0.062721 0
0.333098 -0.166767 0
0.332848 -0.259097 0
0.420658 -0.323945 0
0.633539 -0.248034 0
0.878217 -0.079333 0
1.068706 0.065648 0
1.175195 0.172554 0
1.225950 0.269513 0
1.259593 0.344281 0
1.265580 0.391596 0
1.237801 0.420158 0
1.186324 0.446049 0
1.165780 0.404875 0
1.242110 0.256152 0
1.140003 0.405290 0
0.854490 0.608669 0
0.793918 0.364604 0
0.719583 0.217596 0
0.476087 0.266462 0
0.284945 0.124335 0
0.208180 -0.108143 0
0.178292 -0.268000 0
0.205754 -0.360218 0
0.300919 -0.407925 0
0.410774 -0.422041 0
0.490633 -0.401589 0
0.542480 -0.345995 0
0.584023 -0.256417 0
0.633212 -0.140806 0
0.696406 -0.011398 0
0.772892 0.112470 0
0.847429 0.220827 0
0.899268 0.316567 0
0.943680 0.390153 0
1.005877 0.424470 0
1.057562 0.427472 0
1.112582 0.380437 0
1.151036 0.272744 0
1.070252 0.161875 0
0.866411 0.141798 0
0.666464 0.256720 0
0.588537 0.345603 0
0.575205 0.266904 0
0.556278 0.088538 0
0.559534 -0.068242 0
0.599561 -0.126575 0
0.678421 -0.086556 0
0.750858 -0.016555 0
0.781899 0.002634 0
0.770669 -0.046690 0
0.730834 -0.130172 0
0.682728 -0.217720 0
0.657276 -0.292929 0
0.669290 -0.338332 0
0.731483 -0.345063 0
0.830102 -0.316151 0
0.935705 -0.280785 0
1.021845 -0.261966 0
1.048338 -0.246466 0
1.002857 -0.277628 0
0.910950 -0.351914 0
0.818689 -0.385520 0
0.768736 -0.362598 0
0.744569 -0.302175 0
0.740758 -0.198009 0
0.737851 -0.128861 0
1.000000 -0.000805 0
1.000039 -0.002636 0
1.000189 -0.004513 0
1.000738 -0.006032 0
1.001240 -0.007417 0
1.001765 -0.008915 0
1.002247 -0.010613 0
1.002669 -0.012664 0
1.003101 -0.015171 0
1.003267 -0.018340 0
1.003395 -0.022368 0
1.003747 -0.027403 0
1.001687 -0.034181 0
1.002567 -0.042726 0
0.997643 -0.053812 0
1.001389 -0.070078 0
0.985142 -0.092098 0
0.992170 -0.121816 0
0.960500 -0.170888 0
0.980794 -0.231024 0
0.912493 -0.383660 0
1.020308 -0.808730 0
0.723663 -0.554837 0
0.002672 0.000000 0
0.002313 0.000000 0
0.526984 0.038115 0
0.532811 0.079750 0
0.547095 0.030935 0
0.812942 -0.042073 0
0.309361 0.112434 0
0.489553 0.287850 0
0.577614 0.340484 0
0.558439 0.548938 0
0.137988 0.721220 0
-0.192946 0.389974 0
-0.445802 -0.094856 0
-0.231664 -0.326806 0
-0.233444 -0.517418 0
-0.033968 -0.576423 0
0.272576 -0.417825 0
0.603867 -0.161799 0
0.838338 0.068037 0
0.987104 0.206297 0
1.069905 0.287205 0
1.114879 0.358885 0
1.144365 0.416562 0
1.163203 0.429543 0
1.202432 0.375265 0
1.115048 0.470211 0
0.803439 0.648464 0
0.796502 0.553026 0
0.823500 0.440839 0
0.651161 0.471111 0
0.584468 0.370799 0
0.559032 0.147469 0
0.450926 -0.056993 0
0.340091 -0.222073 0
0.298888 -0.357170 0
0.314600 -0.449873 0
0.351601 -0.488571 0
0.406091 -0.468905 0
0.467955 -0.399774 0
0.526586 -0.304009 0
0.585936 -0.196853 0
0.648930 -0.083352 0
0.719726 0.027832 0
0.791333 0.137242 0
0.861813 0.245424 0
0.935555 0.329026 0
1.011884 0.362519 0
1.074334 0.365132 0
1.127244 0.343721 0
1.140984 0.298964 0
1.089350 0.297223 0
0.965501 0.352600 0
0.853962 0.396632 0
0.844182 0.379778 0
0.866517 0.282804 0
0.839458 0.118171 0
0.720326 -0.041758 0
0.607324 -0.141546 0
0.564050 -0.169078 0
0.592664 -0.134558 0
0.655375 -0.088808 0
0.712098 -0.072451 0
0.753379 -0.095089 0
0.777979 -0.159097 0
0.818295 -0.241242 0
0.846702 -0.313227 0
0.860226 -0.366913 0
0.864650 -0.387111 0
0.887563 -0.376700 0
0.931403 -0.345348 0
0.983749 -0.309758 0
1.031512 -0.279726 0
1.019327 -0.264125 0
0.948565 -0.280260 0
0.860983 -0.288642 0
0.789104 -0.258899 0
0.750711 -0.179377 0
0.735648 -0.119532 0
1.000000 -0.000866 0
1.000043 -0.002646 0
1.000014 -0.004704 0
1.000274 -0.006477 0
1.000551 -0.007824 0
1.000908 -0.009273 0
1.001080 -0.010858 0
1.000897 -0.012854 0
1.001412 -0.015148 0
1.000164 -0.018089 0
1.000636 -0.022429 0
0.998190 -0.025569 0
0.998470 -0.033051 0
0.994156 -0.039237 0
0.992249 -0.054282 0
0.982714 -0.059932 0
0.978733 -0.086068 0
0.957251 -0.102017 0
0.942255 -0.159178 0
0.897643 -0.188091 0
0.845456 -0.369385 0
0.699203 -0.479963 0
0.000000 -0.004684 0
-0.625891 0.175669 0
-0.546095 0.000000 0
0.000000 0.000000 0
0.035068 -0.006837 0
0.072774 -0.247267 0
0.232907 0.316382 0
0.300468 0.495025 0
-0.047926 0.000844 0
-0.346887 0.283183 0
-0.473004 0.761686 0
-0.307398 0.877971 0
-0.191482 0.521072 0
-0.297186 -0.128046 0
-0.235650 -0.471452 0
-0.177223 -0.521638 0
-0.177791 -0.754052 0
-0.063250 -0.717165 0
0.199444 -0.500110 0
0.504574 -0.210680 0
0.752264 0.037949 0
0.910719 0.216509 0
0.991238 0.317139 0
1.033078 0.371837 0
1.072174 0.387985 0
1.070731 0.453034 0
0.932157 0.655148 0
0.878541 0.723839 0
0.898408 0.588611 0
0.839113 0.509948 0
0.811898 0.456631 0
0.781446 0.358594 0
0.689714 0.257880 0
0.569458 0.110802 0
0.471340 -0.115958 0
0.403222 -0.334724 0
0.389174 -0.460636 0
0.375230 -0.513529 0
0.383773 -0.517940 0
0.420414 -0.466487 0
0.483094 -0.374395 0
0.563370 -0.263147 0
0.647149 -0.145185 0
0.722514 -0.029930 0
0.783741 0.078743 0
0.850364 0.172348 0
0.931870 0.240083 0
1.014916 0.285693 0
1.082795 0.312115 0
1.144022 0.313788 0
1.181703 0.310639 0
1.189757 0.337359 0
1.210188 0.377187 0
1.249103 0.378041 0
1.271691 0.333049 0
1.244949 0.271629 0
1.156057 0.234729 0
1.014649 0.163892 0
0.881572 0.029701 0
0.765168 -0.071897 0
0.676173 -0.107881 0
0.657908 -0.116801 0
0.699732 -0.144695 0
0.779961 -0.196054 0
0.888890 -0.282637 0
0.992006 -0.361653 0
1.081987 -0.380265 0
1.136766 -0.363014 0
1.136814 -0.343491 0
1.091991 -0.347540 0
1.033297 -0.358154 0
1.001184 -0.346578 0
0.998249 -0.313209 0
1.012861 -0.268971 0
1.008707 -0.227179 0
0.953339 -0.203140 0
0.886648 -0.191906 0
0.834240 -0.144556 0
0.813148 -0.100570 0
1.000000 -0.000856 0
0.999907 -0.002663 0
0.999957 -0.004751 0
1.000004 -0.006575 0
0.999892 -0.008057 0
1.000170 -0.009450 0
1.000012 -0.010608 0
0.999808 -0.013001 0
0.998964 -0.014444 0
0.998965 -0.017570 0
0.997360 -0.020401 0
0.995370 -0.025243 0
0.994472 -0.030153 0
0.988117 -0.036510 0
0.986737 -0.042375 0
0.968628 -0.056568 0
0.970104 -0.066640 0
0.931434 -0.085343 0
0.931125 -0.111285 0
0.831157 -0.134230 0
0.821419 -0.185224 0
0.485584 -0.050603 0
0.349571 0.057039 0
0.000000 0.000000 0
0.000000 0.000000 0
0.000000 0.000000 0
0.000000 0.000000 0
-0.010767 -0.170833 0
-0.243279 -0.269766 0
0.314910 0.393270 0
-0.089292 0.935207 0
-0.529538 0.765564 0
-0.733605 0.509450 0
-0.209945 0.439700 0
-0.091059 0.379764 0
0.249133 -0.050686 0
0.119787 -0.446766 0
0.231901 -0.575274 0
0.166324 -0.690393 0
0.087751 -0.795057 0
0.121746 -0.729621 0
0.309665 -0.484780 0
0.526966 -0.199845 0
0.732507 0.048235 0
0.893827 0.236528 0
0.988540 0.335629 0
1.020366 0.391893 0
0.994290 0.515286 0
0.984393 0.662404 0
1.075975 0.682216 0
1.124884 0.592458 0
1.114552 0.527352 0
1.065194 0.528781 0
0.948431 0.492986 0
0.871303 0.359460 0
0.915450 0.161384 0
0.975762 -0.055834 0
0.854375 -0.275001 0