# vtk DataFile Version 2.0
generated by CFD-lab course output (written by Tobias Neckel) 
ASCII

DATASET STRUCTURED_GRID
DIMENSIONS  101 21 1 
POINTS 2121 float

0.000000 0.000000 0
0.100000 0.000000 0
0.200000 0.000000 0
0.300000 0.000000 0
0.400000 0.000000 0
0.500000 0.000000 0
0.600000 0.000000 0
0.700000 0.000000 0
0.800000 0.000000 0
0.900000 0.000000 0
1.000000 0.000000 0
1.100000 0.000000 0
1.200000 0.000000 0
1.300000 0.000000 0
1.400000 0.000000 0
1.500000 0.000000 0
1.600000 0.000000 0
1.700000 0.000000 0
1.800000 0.000000 0
1.900000 0.000000 0
2.000000 0.000000 0
2.100000 0.000000 0
2.200000 0.000000 0
2.300000 0.000000 0
2.400000 0.000000 0
2.500000 0.000000 0
2.600000 0.000000 0
2.700000 0.000000 0
2.800000 0.000000 0
2.900000 0.000000 0
3.000000 0.000000 0
3.100000 0.000000 0
3.200000 0.000000 0
3.300000 0.000000 0
3.400000 0.000000 0
3.500000 0.000000 0
3.600000 0.000000 0
3.700000 0.000000 0
3.800000 0.000000 0
3.900000 0.000000 0
4.000000 0.000000 0
4.100000 0.000000 0
4.200000 0.000000 0
4.300000 0.000000 0
4.400000 0.000000 0
4.500000 0.000000 0
4.600000 0.000000 0
4.700000 0.000000 0
4.800000 0.000000 0
4.900000 0.000000 0
5.000000 0.000000 0
5.100000 0.000000 0
5.200000 0.000000 0
5.300000 0.000000 0
5.400000 0.000000 0
5.500000 0.000000 0
5.600000 0.000000 0
5.700000 0.000000 0
5.800000 0.000000 0
5.900000 0.000000 0
6.000000 0.000000 0
6.100000 0.000000 0
6.200000 0.000000 0
6.300000 0.000000 0
6.400000 0.000000 0
6.500000 0.000000 0
6.600000 0.000000 0
6.700000 0.000000 0
6.800000 0.000000 0
6.900000 0.000000 0
7.000000 0.000000 0
7.100000 0.000000 0
7.200000 0.000000 0
7.300000 0.000000 0
7.400000 0.000000 0
7.500000 0.000000 0
7.600000 0.000000 0
7.700000 0.000000 0
7.800000 0.000000 0
7.900000 0.000000 0
8.000000 0.000000 0
8.100000 0.000000 0
8.200000 0.000000 0
8.300000 0.000000 0
8.400000 0.000000 0
8.500000 0.000000 0
8.600000 0.000000 0
8.700000 0.000000 0
8.800000 0.000000 0
8.900000 0.000000 0
9.000000 0.000000 0
9.100000 0.000000 0
9.200000 0.000000 0
9.300000 0.000000 0
9.400000 0.000000 0
9.500000 0.000000 0
9.600000 0.000000 0
9.700000 0.000000 0
9.800000 0.000000 0
9.900000 0.000000 0
10.000000 0.000000 0
0.000000 0.100000 0
0.100000 0.100000 0
0.200000 0.100000 0
0.300000 0.100000 0
0.400000 0.100000 0
0.500000 0.100000 0
0.600000 0.100000 0
0.700000 0.100000 0
0.800000 0.100000 0
0.900000 0.100000 0
1.000000 0.100000 0
1.100000 0.100000 0
1.200000 0.100000 0
1.300000 0.100000 0
1.400000 0.100000 0
1.500000 0.100000 0
1.600000 0.100000 0
1.700000 0.100000 0
1.800000 0.100000 0
1.900000 0.100000 0
2.000000 0.100000 0
2.100000 0.100000 0
2.200000 0.100000 0
2.300000 0.100000 0
2.400000 0.100000 0
2.500000 0.100000 0
2.600000 0.100000 0
2.700000 0.100000 0
2.800000 0.100000 0
2.900000 0.100000 0
3.000000 0.100000 0
3.100000 0.100000 0
3.200000 0.100000 0
3.300000 0.100000 0
3.400000 0.100000 0
3.500000 0.100000 0
3.600000 0.100000 0
3.700000 0.100000 0
3.800000 0.100000 0
3.900000 0.100000 0
4.000000 0.100000 0
4.100000 0.100000 0
4.200000 0.100000 0
4.300000 0.100000 0
4.400000 0.100000 0
4.500000 0.100000 0
4.600000 0.100000 0
4.700000 0.100000 0
4.800000 0.100000 0
4.900000 0.100000 0
5.000000 0.100000 0
5.100000 0.100000 0
5.200000 0.100000 0
5.300000 0.100000 0
5.400000 0.100000 0
5.500000 0.100000 0
5.600000 0.100000 0
5.700000 0.100000 0
5.800000 0.100000 0
5.900000 0.100000 0
6.000000 0.100000 0
6.100000 0.100000 0
6.200000 0.100000 0
6.300000 0.100000 0
6.400000 0.100000 0
6.500000 0.100000 0
6.600000 0.100000 0
6.700000 0.100000 0
6.800000 0.100000 0
6.900000 0.100000 0
7.000000 0.100000 0
7.100000 0.100000 0
7.200000 0.100000 0
7.300000 0.100000 0
7.400000 0.100000 0
7.500000 0.100000 0
7.600000 0.100000 0
7.700000 0.100000 0
7.800000 0.100000 0
7.900000 0.100000 0
8.000000 0.100000 0
8.100000 0.100000 0
8.200000 0.100000 0
8.300000 0.100000 0
8.400000 0.100000 0
8.500000 0.100000 0
8.600000 0.100000 0
8.700000 0.100000 0
8.800000 0.100000 0
8.900000 0.100000 0
9.000000 0.100000 0
9.100000 0.100000 0
9.200000 0.100000 0
9.300000 0.100000 0
9.400000 0.100000 0
9.500000 0.100000 0
9.600000 0.100000 0
9.700000 0.100000 0
9.800000 0.100000 0
9.900000 0.100000 0
10.000000 0.100000 0
0.000000 0.200000 0
0.100000 0.200000 0
0.200000 0.200000 0
0.300000 0.200000 0
0.400000 0.200000 0
0.500000 0.200000 0
0.600000 0.200000 0
0.700000 0.200000 0
0.800000 0.200000 0
0.900000 0.200000 0
1.000000 0.200000 0
1.100000 0.200000 0
1.200000 0.200000 0
1.300000 0.200000 0
1.400000 0.200000 0
1.500000 0.200000 0
1.600000 0.200000 0
1.700000 0.200000 0
1.800000 0.200000 0
1.900000 0.200000 0
2.000000 0.200000 0
2.100000 0.200000 0
2.200000 0.200000 0
2.300000 0.200000 0
2.400000 0.200000 0
2.500000 0.200000 0
2.600000 0.200000 0
2.700000 0.200000 0
2.800000 0.200000 0
2.900000 0.200000 0
3.000000 0.200000 0
3.100000 0.200000 0
3.200000 0.200000 0
3.300000 0.200000 0
3.400000 0.200000 0
3.500000 0.200000 0
3.600000 0.200000 0
3.700000 0.200000 0
3.800000 0.200000 0
3.900000 0.200000 0
4.000000 0.200000 0
4.100000 0.200000 0
4.200000 0.200000 0
4.300000 0.200000 0
4.400000 0.200000 0
4.500000 0.200000 0
4.600000 0.200000 0
4.700000 0.200000 0
4.800000 0.200000 0
4.900000 0.200000 0
5.000000 0.200000 0
5.100000 0.200000 0
5.200000 0.200000 0
5.300000 0.200000 0
5.400000 0.200000 0
5.500000 0.200000 0
5.600000 0.200000 0
5.700000 0.200000 0
5.800000 0.200000 0
5.900000 0.200000 0
6.000000 0.200000 0
6.100000 0.200000 0
6.200000 0.200000 0
6.300000 0.200000 0
6.400000 0.200000 0
6.500000 0.200000 0
6.600000 0.200000 0
6.700000 0.200000 0
6.800000 0.200000 0
6.900000 0.200000 0
7.000000 0.200000 0
7.100000 0.200000 0
7.200000 0.200000 0
7.300000 0.200000 0
7.400000 0.200000 0
7.500000 0.200000 0
7.600000 0.200000 0
7.700000 0.200000 0
7.800000 0.200000 0
7.900000 0.200000 0
8.000000 0.200000 0
8.100000 0.200000 0
8.200000 0.200000 0
8.300000 0.200000 0
8.400000 0.200000 0
8.500000 0.200000 0
8.600000 0.200000 0
8.700000 0.200000 0
8.800000 0.200000 0
8.900000 0.200000 0
9.000000 0.200000 0
9.100000 0.200000 0
9.200000 0.200000 0
9.300000 0.200000 0
9.400000 0.200000 0
9.500000 0.200000 0
9.600000 0.200000 0
9.700000 0.200000 0
9.800000 0.200000 0
9.900000 0.200000 0
10.000000 0.200000 0
0.000000 0.300000 0
0.100000 0.300000 0
0.200000 0.300000 0
0.300000 0.300000 0
0.400000 0.300000 0
0.500000 0.300000 0
0.600000 0.300000 0
0.700000 0.300000 0
0.800000 0.300000 0
0.900000 0.300000 0
1.000000 0.300000 0
1.100000 0.300000 0
1.200000 0.300000 0
1.300000 0.300000 0
1.400000 0.300000 0
1.500000 0.300000 0
1.600000 0.300000 0
1.700000 0.300000 0
1.800000 0.300000 0
1.900000 0.300000 0
2.000000 0.300000 0
2.100000 0.300000 0
2.200000 0.300000 0
2.300000 0.300000 0
2.400000 0.300000 0
2.500000 0.300000 0
2.600000 0.300000 0
2.700000 0.300000 0
2.800000 0.300000 0
2.900000 0.300000 0
3.000000 0.300000 0
3.100000 0.300000 0
3.200000 0.300000 0
3.300000 0.300000 0
3.400000 0.300000 0
3.500000 0.300000 0
3.600000 0.300000 0
3.700000 0.300000 0
3.800000 0.300000 0
3.900000 0.300000 0
4.000000 0.300000 0
4.100000 0.300000 0
4.200000 0.300000 0
4.300000 0.300000 0
4.400000 0.300000 0
4.500000 0.300000 0
4.600000 0.300000 0
4.700000 0.300000 0
4.800000 0.300000 0
4.900000 0.300000 0
5.000000 0.300000 0
5.100000 0.300000 0
5.200000 0.300000 0
5.300000 0.300000 0
5.400000 0.300000 0
5.500000 0.300000 0
5.600000 0.300000 0
5.700000 0.300000 0
5.800000 0.300000 0
5.900000 0.300000 0
6.000000 0.300000 0
6.100000 0.300000 0
6.200000 0.300000 0
6.300000 0.300000 0
6.400000 0.300000 0
6.500000 0.300000 0
6.600000 0.300000 0
6.700000 0.300000 0
6.800000 0.300000 0
6.900000 0.300000 0
7.000000 0.300000 0
7.100000 0.300000 0
7.200000 0.300000 0
7.300000 0.300000 0
7.400000 0.300000 0
7.500000 0.300000 0
7.600000 0.300000 0
7.700000 0.300000 0
7.800000 0.300000 0
7.900000 0.300000 0
8.000000 0.300000 0
8.100000 0.300000 0
8.200000 0.300000 0
8.300000 0.300000 0
8.400000 0.300000 0
8.500000 0.300000 0
8.600000 0.300000 0
8.700000 0.300000 0
8.800000 0.300000 0
8.900000 0.300000 0
9.000000 0.300000 0
9.100000 0.300000 0
9.200000 0.300000 0
9.300000 0.300000 0
9.400000 0.300000 0
9.500000 0.300000 0
9.600000 0.300000 0
9.700000 0.300000 0
9.800000 0.300000 0
9.900000 0.300000 0
10.000000 0.300000 0
0.000000 0.400000 0
0.100000 0.400000 0
0.200000 0.400000 0
0.300000 0.400000 0
0.400000 0.400000 0
0.500000 0.400000 0
0.600000 0.400000 0
0.700000 0.400000 0
0.800000 0.400000 0
0.900000 0.400000 0
1.000000 0.400000 0
1.100000 0.400000 0
1.200000 0.400000 0
1.300000 0.400000 0
1.400000 0.400000 0
1.500000 0.400000 0
1.600000 0.400000 0
1.700000 0.400000 0
1.800000 0.400000 0
1.900000 0.400000 0
2.000000 0.400000 0
2.100000 0.400000 0
2.200000 0.400000 0
2.300000 0.400000 0
2.400000 0.400000 0
2.500000 0.400000 0
2.600000 0.400000 0
2.700000 0.400000 0
2.800000 0.400000 0
2.900000 0.400000 0
3.000000 0.400000 0
3.100000 0.400000 0
3.200000 0.400000 0
3.300000 0.400000 0
3.400000 0.400000 0
3.500000 0.400000 0
3.600000 0.400000 0
3.700000 0.400000 0
3.800000 0.400000 0
3.900000 0.400000 0
4.000000 0.400000 0
4.100000 0.400000 0
4.200000 0.400000 0
4.300000 0.400000 0
4.400000 0.400000 0
4.500000 0.400000 0
4.600000 0.400000 0
4.700000 0.400000 0
4.800000 0.400000 0
4.900000 0.400000 0
5.000000 0.400000 0
5.100000 0.400000 0
5.200000 0.400000 0
5.300000 0.400000 0
5.400000 0.400000 0
5.500000 0.400000 0
5.600000 0.400000 0
5.700000 0.400000 0
5.800000 0.400000 0
5.900000 0.400000 0
6.000000 0.400000 0
6.100000 0.400000 0
6.200000 0.400000 0
6.300000 0.400000 0
6.400000 0.400000 0
6.500000 0.400000 0
6.600000 0.400000 0
6.700000 0.400000 0
6.800000 0.400000 0
6.900000 0.400000 0
7.000000 0.400000 0
7.100000 0.400000 0
7.200000 0.400000 0
7.300000 0.400000 0
7.400000 0.400000 0
7.500000 0.400000 0
7.600000 0.400000 0
7.700000 0.400000 0
7.800000 0.400000 0
7.900000 0.400000 0
8.000000 0.400000 0
8.100000 0.400000 0
8.200000 0.400000 0
8.300000 0.400000 0
8.400000 0.400000 0
8.500000 0.400000 0
8.600000 0.400000 0
[...]
POINT_DATA 2121 

VECTORS velocity float
0.500000 0.000000 0
-0.000008 0.000000 0
-0.000021 0.000000 0
-0.000042 0.000000 0
-0.000078 0.000000 0
-0.000133 0.000000 0
-0.000139 0.000000 0
-0.000176 0.000000 0
-0.000224 0.000000 0
-0.000274 0.000000 0
-0.000326 0.000000 0
-0.000382 0.000000 0
-0.000442 0.000000 0
-0.000507 0.000000 0
-0.000579 0.000000 0
-0.000659 0.000000 0
-0.000748 0.000000 0
-0.000847 0.000000 0
-0.000952 0.000000 0
-0.001057 0.000000 0
-0.001146 0.000000 0
-0.001191 0.000000 0
-0.001159 0.000000 0
-0.001014 0.000000 0
-0.000718 0.000000 0
-0.000261 0.000000 0
0.000375 0.000000 0
0.001243 0.000000 0
0.002279 0.000000 0
0.003334 0.000000 0
0.004297 0.000000 0
0.005134 0.000000 0
0.005797 0.000000 0
0.005948 0.000000 0
0.005640 0.000000 0
0.009547 0.000000 0
0.006715 0.000000 0
0.009513 0.000000 0
0.005034 0.000000 0
-0.004678 0.000000 0
-0.021809 0.000000 0
-0.038778 0.000000 0
-0.036709 0.000000 0
-0.042622 0.000000 0
-0.035117 0.000000 0
-0.017830 0.000000 0
0.002596 0.000000 0
0.018297 0.000000 0
0.025429 0.000000 0
0.025484 0.000000 0
0.021475 0.000000 0
0.018584 0.000000 0
0.017712 0.000000 0
0.012388 0.000000 0
-0.005309 0.000000 0
-0.000560 0.000000 0
0.020996 0.000000 0
0.010589 0.000000 0
-0.005315 0.000000 0
-0.014201 0.000000 0
-0.013245 0.000000 0
-0.007332 0.000000 0
-0.008178 0.000000 0
-0.008207 0.000000 0
-0.007725 0.000000 0
-0.007093 0.000000 0
-0.006378 0.000000 0
-0.005531 0.000000 0
-0.003755 0.000000 0
0.000028 0.000000 0
0.005052 0.000000 0
0.009759 0.000000 0
0.015013 0.000000 0
0.026249 0.000000 0
0.009446 0.000000 0
-0.004323 0.000000 0
-0.006635 0.000000 0
-0.007375 0.000000 0
-0.007196 0.000000 0
-0.004947 0.000000 0
-0.004394 0.000000 0
-0.005734 0.000000 0
-0.005433 0.000000 0
-0.005141 0.000000 0
-0.004686 0.000000 0
-0.003999 0.000000 0
-0.003163 0.000000 0
-0.002212 0.000000 0
-0.001192 0.000000 0
-0.000207 0.000000 0
0.000594 0.000000 0
0.001079 0.000000 0
0.001188 0.000000 0
0.000960 0.000000 0
0.000476 0.000000 0
-0.000165 0.000000 0
-0.000872 0.000000 0
-0.001552 0.000000 0
-0.002121 0.000000 0
-0.002458 0.000000 0
-0.002567 0.000000 0
1.000000 0.000351 0
1.000001 0.000743 0
1.000158 0.000673 0
1.000636 0.000333 0
1.001593 -0.000324 0
1.003194 -0.001212 0
1.005555 -0.002012 0
1.008766 -0.002876 0
1.013010 -0.004051 0
1.018499 -0.005484 0
1.025493 -0.007223 0
1.034316 -0.009345 0
1.045381 -0.011952 0
1.059217 -0.015169 0
1.076487 -0.019132 0
1.098007 -0.023971 0
1.124737 -0.029771 0
1.157731 -0.036499 0
1.198011 -0.043883 0
1.246268 -0.051243 0
1.302411 -0.057267 0
1.364360 -0.060152 0
1.428888 -0.057587 0
1.485915 -0.047940 0
1.528970 -0.033230 0
1.555298 -0.016709 0
1.564398 0.000272 0
1.556821 0.017335 0
1.533355 0.033300 0
1.494741 0.047451 0
1.443113 0.060386 0
1.379036 0.072318 0
1.303158 0.082446 0
1.217343 0.087364 0
1.125254 0.099603 0
1.028903 0.127363 0
0.917839 0.137726 0
0.734704 0.145613 0
0.532353 0.127270 0
0.444442 0.045180 0
0.348831 -0.107853 0
0.481954 -0.263766 0
0.829550 -0.319901 0
1.180557 -0.318109 0
1.471906 -0.272829 0
1.707384 -0.167522 0
1.840046 -0.036924 0
1.862526 0.074807 0
1.788994 0.141693 0
1.661920 0.164316 0
1.523484 0.160877 0
1.374008 0.160014 0
1.218491 0.166857 0
1.128197 0.129528 0
1.104830 0.041190 0
0.937854 0.080801 0
0.674523 0.166774 0
0.553613 0.085412 0
0.548038 -0.063034 0
0.636773 -0.154130 0
0.782728 -0.152724 0
0.939995 -0.109101 0
1.055408 -0.090576 0
1.149015 -0.088584 0
1.232914 -0.078895 0
1.304743 -0.065867 0
1.361094 -0.051026 0
1.400421 -0.034568 0
1.421962 -0.012188 0
1.422707 0.022287 0
1.404049 0.067391 0
1.356636 0.115501 0
1.241049 0.176418 0
1.069657 0.209009 0
0.938305 0.123118 0
0.866079 -0.000657 0
0.803572 -0.053679 0
0.775900 -0.068579 0
0.804634 -0.068789 0
0.881654 -0.054356 0
0.971590 -0.045726 0
1.041194 -0.048956 0
1.095655 -0.049485 0
1.148124 -0.045984 0
1.194171 -0.039892 0
1.233386 -0.032154 0
1.264141 -0.023444 0
1.286713 -0.014569 0
1.301622 -0.006079 0
1.309567 0.001348 0
1.311532 0.006906 0
1.308933 0.009934 0
1.303700 0.010230 0
1.298030 0.008174 0
1.293755 0.004534 0
1.291839 0.000159 0
1.292093 -0.004231 0
1.293469 -0.007953 0
1.294692 -0.011263 0
1.294634 -0.008950 0
1.294937 -0.005036 0
1.000000 0.000004 0
1.000584 -0.000151 0
1.001567 -0.000631 0
1.002972 -0.001431 0
1.004859 -0.002553 0
1.007217 -0.003957 0
1.010187 -0.005568 0
1.014076 -0.007452 0
1.018931 -0.009730 0
1.024918 -0.012481 0
1.032263 -0.015814 0
1.041254 -0.019886 0
1.052263 -0.024899 0
1.065781 -0.031105 0
1.082444 -0.038790 0
1.103071 -0.048250 0
1.128688 -0.059725 0
1.160554 -0.073276 0
1.200121 -0.088540 0
1.248879 -0.104403 0
1.307995 -0.118096 0
1.376013 -0.126482 0
1.451537 -0.121560 0
1.516645 -0.100088 0
1.563859 -0.069389 0
1.591660 -0.035435 0
1.601106 -0.001530 0
1.593999 0.031037 0
1.572883 0.062074 0
1.538267 0.090236 0
1.490198 0.115699 0
1.429176 0.139949 0
1.354133 0.161687 0
1.267002 0.177900 0
1.168567 0.188436 0
1.063749 0.207411 0
0.976707 0.294195 0
1.003435 0.385483 0
0.927657 0.290259 0
0.569704 0.183518 0
0.312185 -0.037515 0
0.302549 -0.480721 0
0.543115 -0.698605 0
0.922298 -0.642359 0
1.184740 -0.526830 0
1.378568 -0.368141 0
1.533061 -0.155144 0
1.634980 0.051051 0
1.662116 0.200605 0
1.623218 0.265509 0
1.528243 0.287911 0
1.411968 0.304992 0
1.333107 0.245811 0
1.289867 0.113661 0
1.143569 0.190344 0
0.887788 0.430308 0
0.802472 0.384242 0
0.817112 0.126486 0
0.801928 -0.083159 0
0.728013 -0.234688 0
0.713138 -0.303220 0
0.823403 -0.272678 0
0.976805 -0.209018 0
1.075417 -0.177504 0
1.156524 -0.155725 0
1.223643 -0.128178 0
1.272405 -0.095676 0
1.304250 -0.060865 0
1.312610 -0.022285 0
1.278287 0.017915 0
1.213172 0.066073 0
1.138515 0.163002 0
1.073058 0.286980 0
1.013398 0.302744 0
0.950402 0.203577 0
0.816513 0.134731 0
0.669447 0.090178 0
0.577420 -0.001064 0
0.564244 -0.105758 0
0.642692 -0.166960 0
0.779502 -0.159544 0
0.912369 -0.124071 0
1.013064 -0.106936 0
1.077555 -0.098523 0
1.126784 -0.085271 0
1.169435 -0.069979 0
1.201658 -0.053336 0
1.226511 -0.037491 0
1.245758 -0.022865 0
1.260767 -0.009922 0
1.272429 0.000621 0
1.281252 0.007820 0
1.287871 0.010890 0
1.293116 0.009931 0
1.297221 0.006177 0
1.299837 0.001648 0
1.300012 -0.001644 0
1.297046 -0.002613 0
1.291017 -0.001180 0
1.281925 -0.000259 0
1.279026 -0.000602 0
1.000000 -0.000228 0
1.000403 -0.000819 0
1.001179 -0.001713 0
1.002356 -0.002957 0
1.003986 -0.004567 0
1.006119 -0.006538 0
1.008853 -0.008868 0
1.012332 -0.011617 0
1.016659 -0.014891 0
1.021972 -0.018815 0
1.028454 -0.023557 0
1.036338 -0.029343 0
1.045937 -0.036478 0
1.057676 -0.045349 0
1.072150 -0.056420 0
1.090160 -0.070214 0
1.112800 -0.087253 0
1.141585 -0.107932 0
1.178519 -0.132208 0
1.226528 -0.159116 0
1.289255 -0.184401 0
1.366304 -0.203695 0
1.465551 -0.198220 0
1.546620 -0.160264 0
1.598833 -0.108246 0
1.626285 -0.053957 0
1.633642 -0.002069 0
1.623517 0.045557 0
1.600123 0.089031 0
1.568740 0.130135 0
1.524353 0.169475 0
1.464642 0.208383 0
1.390334 0.244621 0
1.304807 0.272929 0
1.204572 0.302855 0
1.090363 0.319222 0
1.000338 0.198039 0
0.978441 0.194663 0
0.856807 0.561001 0
0.624371 0.660651 0
0.656043 0.159301 0
0.643753 -0.494696 0
0.581242 -0.939650 0
0.727806 -0.959735 0
0.978035 -0.729099 0
1.113268 -0.515842 0
1.209811 -0.293336 0
1.315314 -0.054248 0
1.392769 0.153454 0
1.406390 0.298189 0
1.382386 0.372127 0
1.443048 0.355150 0
1.520529 0.288959 0
1.392209 0.319065 0
1.058876 0.443269 0
0.832727 0.421899 0
0.806527 0.237451 0
0.827779 0.085956 0
0.861046 0.026065 0
0.833576 -0.065340 0
0.768347 -0.248112 0
0.758548 -0.372768 0
0.863301 -0.342589 0
0.982821 -0.268301 0
1.069639 -0.227121 0
1.133816 -0.181747 0
1.173710 -0.131632 0
1.190613 -0.074772 0
1.219777 0.013776 0
1.214646 0.121724 0
1.134506 0.207163 0
1.026400 0.255616 0
0.981498 0.301535 0
0.974474 0.331664 0
0.881437 0.320002 0
0.721951 0.280297 0
0.607107 0.185413 0
0.550571 0.036623 0
0.508978 -0.134063 0
0.518253 -0.269615 0
0.585827 -0.315405 0
0.700513 -0.282520 0
0.832676 -0.214674 0
0.945162 -0.159707 0
1.025466 -0.131775 0
1.072133 -0.107031 0
1.099348 -0.080524 0
1.119392 -0.058672 0
1.134304 -0.040339 0
1.147088 -0.025328 0
1.159476 -0.013583 0
1.171511 -0.005513 0
1.183107 -0.001639 0
1.195008 -0.001180 0
1.206609 -0.002192 0
1.217521 -0.002638 0
1.226565 -0.001445 0
1.233760 0.001037 0
1.239652 0.003854 0
1.244976 0.003037 0
1.246604 0.000783 0
1.000000 -0.000395 0
1.000286 -0.001324 0
1.000871 -0.002580 0
1.001801 -0.004234 0
1.003155 -0.006313 0
1.004988 -0.008821 0
1.007357 -0.011779 0
1.010331 -0.015255 0
1.013994 -0.019368 0
1.018451 -0.024273 0
1.023835 -0.030177 0
1.030309 -0.037367 0
1.038090 -0.046235 0
1.047493 -0.057316 0
1.059041 -0.071272 0
1.073433 -0.088897 0
1.091713 -0.111148 0
1.115584 -0.138994 0
1.147063 -0.173481 0
1.191689 -0.215138 0
1.255895 -0.257871 0
1.339740 -0.302779 0
1.499905 -0.301877 0
1.603148 -0.233370 0
1.653531 -0.149056 0
1.674982 -0.070245 0
1.678838 0.001238 0
1.664488 0.064555 0
1.634675 0.116850 0
1.609336 0.166006 0
1.576245 0.219798 0
1.507102 0.273968 0
1.414708 0.321522 0
1.317149 0.363662 0
1.220083 0.402881 0
1.187376 0.411644 0
1.126022 0.406117 0
0.782219 0.529014 0
0.601157 0.644328 0
0.829249 0.384283 0
1.054565 -0.056898 0
1.081572 -0.405920 0
0.903483 -0.782658 0
0.731632 -1.039152 0
0.804824 -0.912291 0
0.943274 -0.599918 0
1.024434 -0.357191 0
1.073843 -0.131907 0
1.101308 0.109529 0
1.135554 0.275891 0
1.238916 0.251253 0
1.265265 0.166850 0
1.194014 0.296650 0
1.009079 0.575315 0
0.758188 0.749826 0
0.572174 0.682657 0
0.479164 0.389190 0
0.471130 0.071968 0
0.526925 -0.088956 0
0.632291 -0.141988 0
0.701280 -0.228191 0
0.706680 -0.367632 0
0.738806 -0.433289 0
0.831248 -0.383840 0
0.912779 -0.306720 0
1.005006 -0.232249 0
1.078275 -0.152472 0
1.065136 -0.106932 0
1.019362 -0.046318 0
1.035048 0.103186 0
1.056714 0.254319 0
1.036054 0.316010 0
0.983623 0.338906 0
0.928159 0.402806 0
0.848584 0.456099 0
0.794753 0.409061 0
0.805464 0.261558 0
0.856391 0.097063 0
0.862251 -0.073442 0
0.751817 -0.243810 0
0.624652 -0.341806 0
0.584268 -0.370922 0
0.634704 -0.351588 0
0.741622 -0.291315 0
0.855118 -0.212244 0
0.945395 -0.143865 0
0.998067 -0.100598 0
1.012132 -0.072451 0
1.010597 -0.050565 0
1.013014 -0.035097 0
1.024427 -0.023806 0
1.040192 -0.015816 0
1.054821 -0.012611 0
1.069849 -0.013575 0
1.089775 -0.016340 0
1.114720 -0.018312 0
1.139695 -0.017888 0
1.162464 -0.015705 0
1.182328 -0.012400 0
1.195100 -0.007215 0
1.198627 -0.003933 0
1.000000 -0.000509 0
1.000176 -0.001683 0
1.000561 -0.003224 0
1.001195 -0.005237 0
1.002244 -0.007750 0
1.003741 -0.010736 0
1.005688 -0.014208 0
1.008080 -0.018251 0
1.010969 -0.023008 0
1.014429 -0.028653 0
1.018531 -0.035411 0
1.023351 -0.043595 0
1.028972 -0.053659 0
1.035486 -0.066296 0
1.043375 -0.082357 0
1.053074 -0.102883 0
1.065323 -0.129402 0
1.082108 -0.163280 0
1.102723 -0.208310 0
1.139482 -0.267946 0
1.192859 -0.332451 0
1.286931 -0.447704 0
1.572404 -0.461628 0
1.660218 -0.313890 0
1.669585 -0.180080 0
1.666421 -0.079265 0
1.668897 0.008425 0
1.664814 0.089719 0
1.624124 0.144183 0
1.629316 0.188566 0
1.665045 0.271710 0
1.622207 0.369920 0
1.510104 0.434573 0
1.364992 0.467554 0
1.235289 0.432629 0
1.120184 0.413284 0
0.979953 0.603196 0
0.890468 0.719528 0
0.939724 0.513971 0
1.030087 0.207244 0
0.974110 -0.093021 0
0.898296 -0.343614 0
0.832229 -0.589710 0
0.704162 -0.861076 0
0.628577 -0.940741 0
0.733829 -0.735452 0
0.842918 -0.423905 0
0.893956 -0.131122 0
0.962299 0.091743 0
1.050613 0.160581 0
1.004064 0.242417 0
0.743922 0.400053 0
0.511393 0.545145 0
0.391680 0.754892 0
0.336419 0.880175 0
0.388441 0.700923 0
0.531624 0.338494 0
0.559861 0.038196 0
0.449254 -0.135095 0
0.396039 -0.239694 0
0.473537 -0.322501 0
0.560480 -0.410294 0
0.603567 -0.467155 0
0.669514 -0.442273 0
0.719341 -0.400878 0
0.707164 -0.347243 0
0.690871 -0.191763 0
0.672736 -0.015858 0
0.626917 0.043864 0
0.612256 0.084373 0
0.654933 0.206157 0
0.705325 0.328707 0
0.727198 0.409430 0
0.760464 0.466703 0
0.836307 0.453408 0
0.930383 0.323417 0
0.982581 0.123774 0
0.939210 -0.020165 0
0.878393 -0.029490 0
0.776988 -0.032018 0
0.665789 -0.147858 0
0.595367 -0.292575 0
0.577262 -0.372030 0
0.602910 -0.380123 0
0.661658 -0.335550 0
0.746388 -0.249983 0
0.836294 -0.147264 0
0.900213 -0.071205 0
0.920946 -0.041223 0
0.909328 -0.039162 0
0.890264 -0.040765 0
0.872768 -0.035910 0
0.865270 -0.031299 0
0.875448 -0.036138 0
0.903886 -0.047067 0
0.951613 -0.052561 0
1.010859 -0.049193 0
1.063845 -0.041601 0
1.096500 -0.028786 0
1.115923 -0.013266 0
1.120229 -0.005858 0
1.000000 -0.000564 0
1.000085 -0.001877 0
1.000277 -0.003596 0
1.000487 -0.005913 0
1.001221 -0.008855 0
1.002393 -0.012261 0
1.003934 -0.016113 0
1.005672 -0.020532 0
1.007691 -0.025713 0
1.010053 -0.031830 0
1.012774 -0.039095 0
1.015835 -0.047804 0
1.019179 -0.058366 0
1.022308 -0.071714 0
1.026094 -0.088856 0
1.030397 -0.110841 0
1.035184 -0.140177 0
1.043977 -0.176391 0
1.045510 -0.230851 0
1.071067 -0.305270 0
1.086285 -0.405318 0
1.227375 -0.682322 0
1.571731 -0.675163 0
1.469735 -0.330551 0
1.351498 -0.155259 0
1.298824 -0.069558 0
1.304811 0.002845 0
1.388166 0.109328 0
1.291286 0.152348 0
1.329490 0.125085 0
1.581665 0.226907 0
1.653331 0.428910 0
1.588140 0.578739 0
1.447803 0.638478 0
1.285382 0.647690 0
1.040241 0.666982 0
0.856815 0.635834 0
0.919002 0.569243 0
0.922619 0.504710 0
0.828974 0.349897 0
0.726819 0.074894 0
0.646399 -0.264039 0
0.628456 -0.588524 0
0.602986 -0.835499 0
0.552730 -0.941958 0
0.571098 -0.814260 0
0.667554 -0.517318 0
0.774713 -0.251287 0
0.903062 -0.047128 0
0.940989 0.234126 0
0.722025 0.557944 0
0.517357 0.659521 0
0.427405 0.648892 0
0.385947 0.750289 0
0.397246 0.753065 0
0.561658 0.487452 0
0.731578 0.217771 0
0.715762 0.154338 0
0.562458 0.074867 0
0.437195 -0.166271 0
0.419435 -0.392631 0
0.485239 -0.497661 0
0.519930 -0.542323 0
0.529150 -0.499613 0
0.579767 -0.344369 0
0.606831 -0.203778 0
0.574957 -0.118043 0
0.591730 -0.042978 0
0.663323 0.014163 0
0.648411 0.075171 0
0.557462 0.161250 0
0.497782 0.243745 0
0.556055 0.283767 0
0.723289 0.293697 0
0.870376 0.286180 0
0.891219 0.262786 0
0.786865 0.252731 0
0.629195 0.201251 0
0.538707 0.088780 0
0.558507 -0.031208 0
0.614683 -0.160187 0
0.636186 -0.282397 0
0.633398 -0.359133 0
0.638754 -0.375713 0
0.644711 -0.355724 0
0.637380 -0.318503 0
0.656769 -0.254425 0
0.727887 -0.157105 0
0.807120 -0.059682 0
0.838680 -0.004419 0
0.808860 0.012750 0
0.753236 0.009175 0
0.727391 -0.015293 0
0.743518 -0.052194 0
0.776407 -0.092509 0
0.808498 -0.125287 0
0.831417 -0.130124 0
0.894428 -0.101350 0
1.010739 -0.064481 0
1.036422 -0.030947 0
1.037677 -0.012164 0
1.000000 -0.000587 0
0.999937 -0.001951 0
1.000104 -0.003622 0
1.000210 -0.006176 0
0.999986 -0.009652 0
1.000801 -0.013445 0
1.002149 -0.017482 0
1.003222 -0.022003 0
1.004294 -0.027384 0
1.005505 -0.033731 0
1.006869 -0.041187 0
1.008212 -0.049995 0
1.009676 -0.060127 0
1.008691 -0.073206 0
1.008833 -0.090441 0
1.008426 -0.111967 0
1.006608 -0.142977 0
1.000427 -0.173601 0
0.993376 -0.235395 0
0.989988 -0.308717 0
0.969259 -0.488755 0
1.057406 -0.933146 0
0.761212 -0.610329 0
-0.003056 0.000000 0
-0.004812 0.000000 0
0.482866 -0.023409 0
0.450495 -0.080918 0
0.264658 0.103245 0
0.283588 0.202860 0
0.421917 -0.101812 0
1.198928 -0.052130 0
1.419310 0.363447 0
1.449890 0.640103 0
1.422752 0.770314 0
1.307635 0.840192 0
1.155426 0.841853 0
1.073722 0.724436 0
0.926607 0.653725 0
0.776802 0.604001 0
0.704696 0.403044 0
0.700727 0.089555 0
0.735280 -0.245250 0
0.743385 -0.546297 0
0.679386 -0.785350 0
0.590066 -0.908853 0
0.550427 -0.850277 0
0.627202 -0.627519 0
0.739814 -0.366629 0
0.796408 -0.074533 0
0.746775 0.341617 0
0.679344 0.666048 0
0.702545 0.694674 0
0.684763 0.676556 0
0.650391 0.785051 0
0.687561 0.704464 0
0.753738 0.366592 0
0.718486 0.184391 0
0.662011 0.207316 0
0.660984 0.143472 0
0.657288 -0.096670 0
0.608753 -0.370544 0
0.596039 -0.510788 0
0.615946 -0.511065 0
0.568115 -0.502110 0
0.534084 -0.478558 0
0.634350 -0.342432 0
0.797753 -0.176661 0
0.913260 -0.104224 0
0.915940 -0.012816 0
0.821179 0.190235 0
0.704149 0.356786 0
0.656408 0.330114 0
0.664116 0.183923 0
0.640998 0.152383 0
0.569764 0.285479 0
0.482073 0.406927 0
0.427704 0.385798 0
0.457784 0.227994 0
0.522002 0.041198 0
0.594204 -0.107996 0
0.674726 -0.225539 0
0.744185 -0.311291 0
0.742928 -0.374600 0
0.706688 -0.391438 0
0.707200 -0.334178 0
0.713453 -0.262042 0
0.702568 -0.237773 0
0.683528 -0.221559 0
0.684598 -0.152018 0
0.708122 -0.040904 0
0.740715 0.044677 0
0.783555 0.045557 0
0.814586 -0.021584 0
0.842979 -0.085158 0
0.876978 -0.112050 0
0.903543 -0.107573 0
0.935582 -0.135126 0
0.959703 -0.220925 0
0.939769 -0.170782 0
0.916378 -0.040207 0
0.910439 -0.004989 0
1.000000 -0.000493 0
0.999920 -0.001971 0
0.999834 -0.003864 0
1.000168 -0.005790 0
0.999582 -0.009441 0
0.999528 -0.014419 0
1.000066 -0.018529 0
1.000511 -0.022671 0
1.000912 -0.027990 0
1.000484 -0.034399 0
1.002273 -0.041797 0
1.000725 -0.050606 0
1.000938 -0.058838 0
0.996090 -0.070865 0
0.998264 -0.088585 0
0.987377 -0.108610 0
0.986479 -0.132173 0
0.956566 -0.163153 0
0.964238 -0.220406 0
0.887928 -0.281147 0
0.902022 -0.472730 0
0.608353 -0.567926 0
0.000000 0.003405 0
-0.632012 0.250115 0
-0.529129 0.000000 0
0.000000 0.000000 0
-0.036844 0.207619 0
-0.090368 0.276236 0
-0.119976 -0.004909 0
-0.046009 -0.790252 0
0.380852 -0.770483 0
0.871005 0.177950 0
1.057919 0.575299 0
1.147278 0.780736 0
1.159480 0.915018 0
1.164236 0.900896 0
1.087965 0.864654 0
0.899841 0.866165 0
0.774721 0.726623 0
0.732385 0.425973 0
0.759330 0.044310 0
0.814061 -0.306696 0
0.861311 -0.532629 0
0.843553 -0.682180 0
0.749123 -0.812998 0
0.651156 -0.851395 0
0.644174 -0.706705 0
0.699117 -0.420493 0
0.715288 -0.054089 0
0.710157 0.351189 0
0.786993 0.602174 0
0.880367 0.654103 0
0.892477 0.701047 0
0.902034 0.747491 0
1.005265 0.649718 0
1.033983 0.456527 0
0.951850 0.309498 0
0.898499 0.211841 0
0.898915 0.079590 0
0.885864 -0.114040 0
0.812663 -0.331382 0
0.714500 -0.504854 0
0.678623 -0.514398 0
0.672335 -0.417750 0
0.599953 -0.410604 0
0.523661 -0.467446 0
0.572730 -0.396953 0
0.648553 -0.161163 0
0.627128 0.106245 0
0.602017 0.286962 0
0.667992 0.326022 0
0.756776 0.283779 0
0.714962 0.299176 0
0.540379 0.388050 0
0.412444 0.445106 0
0.435782 0.404845 0
0.574913 0.277020 0
0.728831 0.106953 0
0.821243 -0.047641 0
0.870337 -0.183932 0
0.874441 -0.310169 0
0.904442 -0.350600 0
0.930733 -0.321636 0
0.872620 -0.339987 0
0.759976 -0.362491 0
0.688165 -0.313872 0
0.668372 -0.224502 0
0.653911 -0.139137 0
0.640132 -0.084278 0
0.656351 -0.060538 0
0.725837 -0.062684 0
0.821082 -0.064698 0
0.908269 -0.074719 0
0.968551 -0.114588 0
1.007910 -0.153075 0
1.008764 -0.183894 0
1.006650 -0.186286 0
1.007684 -0.105540 0
0.915061 -0.021159 0
0.878833 -0.001619 0
0.873910 0.001238 0
1.000000 -0.000498 0
0.999916 -0.001773 0
0.999623 -0.003864 0
0.999860 -0.005919 0
0.999865 -0.009007 0
0.999171 -0.013922 0
0.998354 -0.018459 0
0.998789 -0.022843 0
0.998347 -0.027351 0
0.997738 -0.035084 0
0.995910 -0.041422 0
0.996529 -0.048655 0
0.992329 -0.055485 0
0.991543 -0.070525 0
0.982570 -0.081722 0
0.978113 -0.100175 0
0.959703 -0.112159 0
0.948078 -0.151352 0
0.909364 -0.166750 0
0.861297 -0.246493 0
0.780229 -0.209172 0
0.476948 -0.113544 0
0.353707 -0.084399 0
0.000000 0.000000 0
0.000000 0.000000 0
0.000000 0.000000 0
0.000000 0.000000 0
0.211603 0.190363 0
0.283471 0.158504 0
0.216397 -0.602637 0
-0.300882 -0.969141 0
0.280520 -0.313617 0
0.627871 0.363833 0
0.824047 0.668755 0
0.945305 0.823237 0
0.981229 0.913370 0
0.893387 0.988833 0
0.798481 0.966970 0
0.768165 0.771459 0
0.794749 0.418437 0
0.833680 0.007880 0
0.822803 -0.347231 0
0.809324 -0.575789 0
0.839602 -0.673161 0
0.847432 -0.716455 0
0.790641 -0.745327 0
0.718931 -0.675480 0
0.711321 -0.437743 0
0.731530 -0.085571 0
0.773633 0.269912 0
0.879271 0.495838 0
0.969219 0.589190 0
1.022768 0.654889 0
1.097447 0.672263 0
1.194982 0.572514 0
1.242871 0.420007 0
1.230007 0.319875 0