# vtk DataFile Version 2.0
generated by CFD-lab course output (written by Tobias Neckel) 
ASCII

DATASET STRUCTURED_GRID
DIMENSIONS  101 21 1 
POINTS 2121 float

0.000000 0.000000 0
0.100000 0.000000 0
0.200000 0.000000 0
0.300000 0.000000 0
0.400000 0.000000 0
0.500000 0.000000 0
0.600000 0.000000 0
0.700000 0.000000 0
0.800000 0.000000 0
0.900000 0.000000 0
1.000000 0.000000 0
1.100000 0.000000 0
1.200000 0.000000 0
1.300000 0.000000 0
1.400000 0.000000 0
1.500000 0.000000 0
1.600000 0.000000 0
1.700000 0.000000 0
1.800000 0.000000 0
1.900000 0.000000 0
2.000000 0.000000 0
2.100000 0.000000 0
2.200000 0.000000 0
2.300000 0.000000 0
2.400000 0.000000 0
2.500000 0.000000 0
2.600000 0.000000 0
2.700000 0.000000 0
2.800000 0.000000 0
2.900000 0.000000 0
3.000000 0.000000 0
3.100000 0.000000 0
3.200000 0.000000 0
3.300000 0.000000 0
3.400000 0.000000 0
3.500000 0.000000 0
3.600000 0.000000 0
3.700000 0.000000 0
3.800000 0.000000 0
3.900000 0.000000 0
4.000000 0.000000 0
4.100000 0.000000 0
4.200000 0.000000 0
4.300000 0.000000 0
4.400000 0.000000 0
4.500000 0.000000 0
4.600000 0.000000 0
4.700000 0.000000 0
4.800000 0.000000 0
4.900000 0.000000 0
5.000000 0.000000 0
5.100000 0.000000 0
5.200000 0.000000 0
5.300000 0.000000 0
5.400000 0.000000 0
5.500000 0.000000 0
5.600000 0.000000 0
5.700000 0.000000 0
5.800000 0.000000 0
5.900000 0.000000 0
6.000000 0.000000 0
6.100000 0.000000 0
6.200000 0.000000 0
6.300000 0.000000 0
6.400000 0.000000 0
6.500000 0.000000 0
6.600000 0.000000 0
6.700000 0.000000 0
6.800000 0.000000 0
6.900000 0.000000 0
7.000000 0.000000 0
7.100000 0.000000 0
7.200000 0.000000 0
7.300000 0.000000 0
7.400000 0.000000 0
7.500000 0.000000 0
7.600000 0.000000 0
7.700000 0.000000 0
7.800000 0.000000 0
7.900000 0.000000 0
8.000000 0.000000 0
8.100000 0.000000 0
8.200000 0.000000 0
8.300000 0.000000 0
8.400000 0.000000 0
8.500000 0.000000 0
8.600000 0.000000 0
8.700000 0.000000 0
8.800000 0.000000 0
8.900000 0.000000 0
9.000000 0.000000 0
9.100000 0.000000 0
9.200000 0.000000 0
9.300000 0.000000 0
9.400000 0.000000 0
9.500000 0.000000 0
9.600000 0.000000 0
9.700000 0.000000 0
9.800000 0.000000 0
9.900000 0.000000 0
10.000000 0.000000 0
0.000000 0.100000 0
0.100000 0.100000 0
0.200000 0.100000 0
0.300000 0.100000 0
0.400000 0.100000 0
0.500000 0.100000 0
0.600000 0.100000 0
0.700000 0.100000 0
0.800000 0.100000 0
0.900000 0.100000 0
1.000000 0.100000 0
1.100000 0.100000 0
1.200000 0.100000 0
1.300000 0.100000 0
1.400000 0.100000 0
1.500000 0.100000 0
1.600000 0.100000 0
1.700000 0.100000 0
1.800000 0.100000 0
1.900000 0.100000 0
2.000000 0.100000 0
2.100000 0.100000 0
2.200000 0.100000 0
2.300000 0.100000 0
2.400000 0.100000 0
2.500000 0.100000 0
2.600000 0.100000 0
2.700000 0.100000 0
2.800000 0.100000 0
2.900000 0.100000 0
3.000000 0.100000 0
3.100000 0.100000 0
3.200000 0.100000 0
3.300000 0.100000 0
3.400000 0.100000 0
3.500000 0.100000 0
3.600000 0.100000 0
3.700000 0.100000 0
3.800000 0.100000 0
3.900000 0.100000 0
4.000000 0.100000 0
4.100000 0.100000 0
4.200000 0.100000 0
4.300000 0.100000 0
4.400000 0.100000 0
4.500000 0.100000 0
4.600000 0.100000 0
4.700000 0.100000 0
4.800000 0.100000 0
4.900000 0.100000 0
5.000000 0.100000 0
5.100000 0.100000 0
5.200000 0.100000 0
5.300000 0.100000 0
5.400000 0.100000 0
5.500000 0.100000 0
5.600000 0.100000 0
5.700000 0.100000 0
5.800000 0.100000 0
5.900000 0.100000 0
6.000000 0.100000 0
6.100000 0.100000 0
6.200000 0.100000 0
6.300000 0.100000 0
6.400000 0.100000 0
6.500000 0.100000 0
6.600000 0.100000 0
6.700000 0.100000 0
6.800000 0.100000 0
6.900000 0.100000 0
7.000000 0.100000 0
7.100000 0.100000 0
7.200000 0.100000 0
7.300000 0.100000 0
7.400000 0.100000 0
7.500000 0.100000 0
7.600000 0.100000 0
7.700000 0.100000 0
7.800000 0.100000 0
7.900000 0.100000 0
8.000000 0.100000 0
8.100000 0.100000 0
8.200000 0.100000 0
8.300000 0.100000 0
8.400000 0.100000 0
8.500000 0.100000 0
8.600000 0.100000 0
8.700000 0.100000 0
8.800000 0.100000 0
8.900000 0.100000 0
9.000000 0.100000 0
9.100000 0.100000 0
9.200000 0.100000 0
9.300000 0.100000 0
9.400000 0.100000 0
9.500000 0.100000 0
9.600000 0.100000 0
9.700000 0.100000 0
9.800000 0.100000 0
9.900000 0.100000 0
10.000000 0.100000 0
0.000000 0.200000 0
0.100000 0.200000 0
0.200000 0.200000 0
0.300000 0.200000 0
0.400000 0.200000 0
0.500000 0.200000 0
0.600000 0.200000 0
0.700000 0.200000 0
0.800000 0.200000 0
0.900000 0.200000 0
1.000000 0.200000 0
1.100000 0.200000 0
1.200000 0.200000 0
1.300000 0.200000 0
1.400000 0.200000 0
1.500000 0.200000 0
1.600000 0.200000 0
1.700000 0.200000 0
1.800000 0.200000 0
1.900000 0.200000 0
2.000000 0.200000 0
2.100000 0.200000 0
2.200000 0.200000 0
2.300000 0.200000 0
2.400000 0.200000 0
2.500000 0.200000 0
2.600000 0.200000 0
2.700000 0.200000 0
2.800000 0.200000 0
2.900000 0.200000 0
3.000000 0.200000 0
3.100000 0.200000 0
3.200000 0.200000 0
3.300000 0.200000 0
3.400000 0.200000 0
3.500000 0.200000 0
3.600000 0.200000 0
3.700000 0.200000 0
3.800000 0.200000 0
3.900000 0.200000 0
4.000000 0.200000 0
4.100000 0.200000 0
4.200000 0.200000 0
4.300000 0.200000 0
4.400000 0.200000 0
4.500000 0.200000 0
4.600000 0.200000 0
4.700000 0.200000 0
4.800000 0.200000 0
4.900000 0.200000 0
5.000000 0.200000 0
5.100000 0.200000 0
5.200000 0.200000 0
5.300000 0.200000 0
5.400000 0.200000 0
5.500000 0.200000 0
5.600000 0.200000 0
5.700000 0.200000 0
5.800000 0.200000 0
5.900000 0.200000 0
6.000000 0.200000 0
6.100000 0.200000 0
6.200000 0.200000 0
6.300000 0.200000 0
6.400000 0.200000 0
6.500000 0.200000 0
6.600000 0.200000 0
6.700000 0.200000 0
6.800000 0.200000 0
6.900000 0.200000 0
7.000000 0.200000 0
7.100000 0.200000 0
7.200000 0.200000 0
7.300000 0.200000 0
7.400000 0.200000 0
7.500000 0.200000 0
7.600000 0.200000 0
7.700000 0.200000 0
7.800000 0.200000 0
7.900000 0.200000 0
8.000000 0.200000 0
8.100000 0.200000 0
8.200000 0.200000 0
8.300000 0.200000 0
8.400000 0.200000 0
8.500000 0.200000 0
8.600000 0.200000 0
8.700000 0.200000 0
8.800000 0.200000 0
8.900000 0.200000 0
9.000000 0.200000 0
9.100000 0.200000 0
9.200000 0.200000 0
9.300000 0.200000 0
9.400000 0.200000 0
9.500000 0.200000 0
9.600000 0.200000 0
9.700000 0.200000 0
9.800000 0.200000 0
9.900000 0.200000 0
10.000000 0.200000 0
0.000000 0.300000 0
0.100000 0.300000 0
0.200000 0.300000 0
0.300000 0.300000 0
0.400000 0.300000 0
0.500000 0.300000 0
0.600000 0.300000 0
0.700000 0.300000 0
0.800000 0.300000 0
0.900000 0.300000 0
1.000000 0.300000 0
1.100000 0.300000 0
1.200000 0.300000 0
1.300000 0.300000 0
1.400000 0.300000 0
1.500000 0.300000 0
1.600000 0.300000 0
1.700000 0.300000 0
1.800000 0.300000 0
1.900000 0.300000 0
2.000000 0.300000 0
2.100000 0.300000 0
2.200000 0.300000 0
2.300000 0.300000 0
2.400000 0.300000 0
2.500000 0.300000 0
2.600000 0.300000 0
2.700000 0.300000 0
2.800000 0.300000 0
2.900000 0.300000 0
3.000000 0.300000 0
3.100000 0.300000 0
3.200000 0.300000 0
3.300000 0.300000 0
3.400000 0.300000 0
3.500000 0.300000 0
3.600000 0.300000 0
3.700000 0.300000 0
3.800000 0.300000 0
3.900000 0.300000 0
4.000000 0.300000 0
4.100000 0.300000 0
4.200000 0.300000 0
4.300000 0.300000 0
4.400000 0.300000 0
4.500000 0.300000 0
4.600000 0.300000 0
4.700000 0.300000 0
4.800000 0.300000 0
4.900000 0.300000 0
5.000000 0.300000 0
5.100000 0.300000 0
5.200000 0.300000 0
5.300000 0.300000 0
5.400000 0.300000 0
5.500000 0.300000 0
5.600000 0.300000 0
5.700000 0.300000 0
5.800000 0.300000 0
5.900000 0.300000 0
6.000000 0.300000 0
6.100000 0.300000 0
6.200000 0.300000 0
6.300000 0.300000 0
6.400000 0.300000 0
6.500000 0.300000 0
6.600000 0.300000 0
6.700000 0.300000 0
6.800000 0.300000 0
6.900000 0.300000 0
7.000000 0.300000 0
7.100000 0.300000 0
7.200000 0.300000 0
7.300000 0.300000 0
7.400000 0.300000 0
7.500000 0.300000 0
7.600000 0.300000 0
7.700000 0.300000 0
7.800000 0.300000 0
7.900000 0.300000 0
8.000000 0.300000 0
8.100000 0.300000 0
8.200000 0.300000 0
8.300000 0.300000 0
8.400000 0.300000 0
8.500000 0.300000 0
8.600000 0.300000 0
8.700000 0.300000 0
8.800000 0.300000 0
8.900000 0.300000 0
9.000000 0.300000 0
9.100000 0.300000 0
9.200000 0.300000 0
9.300000 0.300000 0
9.400000 0.300000 0
9.500000 0.300000 0
9.600000 0.300000 0
9.700000 0.300000 0
9.800000 0.300000 0
9.900000 0.300000 0
10.000000 0.300000 0
0.000000 0.400000 0
0.100000 0.400000 0
0.200000 0.400000 0
0.300000 0.400000 0
0.400000 0.400000 0
0.500000 0.400000 0
0.600000 0.400000 0
0.700000 0.400000 0
0.800000 0.400000 0
0.900000 0.400000 0
1.000000 0.400000 0
1.100000 0.400000 0
1.200000 0.400000 0
1.300000 0.400000 0
1.400000 0.400000 0
1.500000 0.400000 0
1.600000 0.400000 0
1.700000 0.400000 0
1.800000 0.400000 0
1.900000 0.400000 0
2.000000 0.400000 0
2.100000 0.400000 0
2.200000 0.400000 0
2.300000 0.400000 0
2.400000 0.400000 0
2.500000 0.400000 0
2.600000 0.400000 0
2.700000 0.400000 0
2.800000 0.400000 0
2.900000 0.400000 0
3.000000 0.400000 0
3.100000 0.400000 0
3.200000 0.400000 0
3.300000 0.400000 0
3.400000 0.400000 0
3.500000 0.400000 0
3.600000 0.400000 0
3.700000 0.400000 0
3.800000 0.400000 0
3.900000 0.400000 0
4.000000 0.400000 0
4.100000 0.400000 0
4.200000 0.400000 0
4.300000 0.400000 0
4.400000 0.400000 0
4.500000 0.400000 0
4.600000 0.400000 0
4.700000 0.400000 0
4.800000 0.400000 0
4.900000 0.400000 0
5.000000 0.400000 0
5.100000 0.400000 0
5.200000 0.400000 0
5.300000 0.400000 0
5.400000 0.400000 0
5.500000 0.400000 0
5.600000 0.400000 0
5.700000 0.400000 0
5.800000 0.400000 0
5.900000 0.400000 0
6.000000 0.400000 0
6.100000 0.400000 0
6.200000 0.400000 0
6.300000 0.400000 0
6.400000 0.400000 0
6.500000 0.400000 0
6.600000 0.400000 0
6.700000 0.400000 0
6.800000 0.400000 0
6.900000 0.400000 0
7.000000 0.400000 0
7.100000 0.400000 0
7.200000 0.400000 0
7.300000 0.400000 0
7.400000 0.400000 0
7.500000 0.400000 0
7.600000 0.400000 0
7.700000 0.400000 0
7.800000 0.400000 0
7.900000 0.400000 0
8.000000 0.400000 0
8.100000 0.400000 0
8.200000 0.400000 0
8.300000 0.400000 0
8.400000 0.400000 0
8.500000 0.400000 0
8.600000 0.400000 0
[...]
POINT_DATA 2121 

VECTORS velocity float
0.500000 0.000000 0
0.000004 0.000000 0
0.000006 0.000000 0
0.000015 0.000000 0
0.000026 0.000000 0
0.000036 0.000000 0
0.000047 0.000000 0
0.000060 0.000000 0
0.000069 0.000000 0
0.000063 0.000000 0
0.000050 0.000000 0
0.000037 0.000000 0
0.000028 0.000000 0
0.000021 0.000000 0
0.000010 0.000000 0
-0.000006 0.000000 0
-0.000030 0.000000 0
-0.000064 0.000000 0
-0.000111 0.000000 0
-0.000180 0.000000 0
-0.000279 0.000000 0
-0.000426 0.000000 0
-0.000646 0.000000 0
-0.000962 0.000000 0
-0.001379 0.000000 0
-0.001883 0.000000 0
-0.002410 0.000000 0
-0.002963 0.000000 0
-0.003564 0.000000 0
-0.004176 0.000000 0
-0.004783 0.000000 0
-0.005217 0.000000 0
-0.004662 0.000000 0
-0.002651 0.000000 0
0.000371 0.000000 0
0.003152 0.000000 0
0.005631 0.000000 0
0.007690 0.000000 0
0.008705 0.000000 0
0.009669 0.000000 0
0.013315 0.000000 0
0.002907 0.000000 0
-0.022226 0.000000 0
0.014800 0.000000 0
0.067210 0.000000 0
0.040242 0.000000 0
0.011664 0.000000 0
-0.007115 0.000000 0
-0.022706 0.000000 0
-0.028440 0.000000 0
-0.024525 0.000000 0
-0.020768 0.000000 0
-0.022392 0.000000 0
-0.022538 0.000000 0
-0.021704 0.000000 0
-0.019893 0.000000 0
-0.015819 0.000000 0
-0.009199 0.000000 0
0.000914 0.000000 0
0.014414 0.000000 0
0.036691 0.000000 0
0.059831 0.000000 0
0.047073 0.000000 0
0.004081 0.000000 0
-0.010130 0.000000 0
-0.010306 0.000000 0
-0.015215 0.000000 0
-0.012023 0.000000 0
-0.007830 0.000000 0
-0.007722 0.000000 0
-0.006136 0.000000 0
-0.004588 0.000000 0
-0.003206 0.000000 0
-0.001774 0.000000 0
-0.000309 0.000000 0
0.000969 0.000000 0
0.002110 0.000000 0
0.003538 0.000000 0
0.005259 0.000000 0
0.008439 0.000000 0
0.023614 0.000000 0
0.027229 0.000000 0
0.006827 0.000000 0
-0.011509 0.000000 0
-0.023372 0.000000 0
-0.015039 0.000000 0
-0.009045 0.000000 0
-0.004633 0.000000 0
-0.002933 0.000000 0
-0.003206 0.000000 0
-0.003130 0.000000 0
-0.002959 0.000000 0
-0.002902 0.000000 0
-0.002783 0.000000 0
-0.002599 0.000000 0
-0.002382 0.000000 0
-0.002124 0.000000 0
-0.001817 0.000000 0
-0.001465 0.000000 0
-0.001123 0.000000 0
-0.000980 0.000000 0
1.000000 0.000339 0
0.999987 0.000792 0
1.000006 0.000863 0
1.000162 0.000740 0
1.000522 0.000535 0
1.001158 0.000233 0
1.002160 -0.000172 0
1.003646 -0.000726 0
1.005789 -0.001736 0
1.008839 -0.002935 0
1.012980 -0.004186 0
1.018524 -0.005864 0
1.025864 -0.007988 0
1.035496 -0.010667 0
1.048037 -0.014038 0
1.064237 -0.018223 0
1.084972 -0.023291 0
1.111200 -0.029193 0
1.143822 -0.035661 0
1.183413 -0.042061 0
1.229790 -0.047241 0
1.281192 -0.049606 0
1.334068 -0.047342 0
1.381551 -0.039928 0
1.418249 -0.028921 0
1.441718 -0.016655 0
1.451987 -0.005375 0
1.450890 0.002960 0
1.442422 0.006597 0
1.432633 0.004043 0
1.429393 -0.005120 0
1.440739 -0.017988 0
1.469216 -0.025502 0
1.502828 -0.019066 0
1.523155 0.000609 0
1.516590 0.025604 0
1.480348 0.050286 0
1.420342 0.071345 0
1.343255 0.084869 0
1.254794 0.104966 0
1.160432 0.117792 0
1.091880 -0.025428 0
1.016796 -0.179303 0
0.854152 0.097819 0
0.522517 0.482979 0
0.243350 0.422962 0
0.154191 0.134616 0
0.184030 -0.084551 0
0.291843 -0.221270 0
0.494098 -0.268899 0
0.749110 -0.233838 0
0.969468 -0.193574 0
1.147415 -0.181971 0
1.316509 -0.171491 0
1.467457 -0.153986 0
1.598545 -0.129101 0
1.698935 -0.091238 0
1.751291 -0.038003 0
1.750879 0.031272 0
1.667268 0.120887 0
1.483558 0.255277 0
1.250776 0.413689 0
1.054448 0.381429 0
0.917750 0.136476 0
0.766548 -0.044993 0
0.684094 -0.118195 0
0.744125 -0.155693 0
0.888700 -0.138382 0
1.017011 -0.105616 0
1.113605 -0.090450 0
1.194467 -0.073062 0
1.255250 -0.054382 0
1.300007 -0.037248 0
1.330206 -0.020116 0
1.343371 -0.002203 0
1.338016 0.015459 0
1.315145 0.032971 0
1.274032 0.051194 0
1.220190 0.071445 0
1.172248 0.120506 0
1.102947 0.217331 0
1.009797 0.238922 0
0.975292 0.110431 0
0.936272 -0.061037 0
0.847185 -0.157785 0
0.785495 -0.144666 0
0.804016 -0.092994 0
0.869497 -0.054912 0
0.948675 -0.033556 0
1.015939 -0.029771 0
1.059775 -0.028381 0
1.089909 -0.023278 0
1.114099 -0.019330 0
1.135111 -0.016049 0
1.152475 -0.012915 0
1.166937 -0.010022 0
1.178914 -0.007174 0
1.188456 -0.004294 0
1.195529 -0.001344 0
1.200114 -0.001038 0
1.203809 -0.002101 0
1.000000 0.000038 0
1.000524 0.000031 0
1.001349 -0.000152 0
1.002389 -0.000494 0
1.003679 -0.000974 0
1.005258 -0.001616 0
1.007193 -0.002466 0
1.009591 -0.003607 0
1.012577 -0.005172 0
1.016079 -0.007171 0
1.020606 -0.009665 0
1.026373 -0.012865 0
1.033742 -0.016954 0
1.043188 -0.022154 0
1.055301 -0.028723 0
1.070824 -0.036918 0
1.090681 -0.046946 0
1.116021 -0.058833 0
1.148152 -0.072197 0
1.188311 -0.085952 0
1.237413 -0.097763 0
1.294221 -0.104262 0
1.356811 -0.100343 0
1.412264 -0.084166 0
1.453140 -0.060153 0
1.475958 -0.033724 0
1.482825 -0.009157 0
1.476341 0.009578 0
1.459972 0.018270 0
1.439879 0.013042 0
1.427114 -0.008094 0
1.435982 -0.039811 0
1.475377 -0.062078 0
1.531234 -0.053929 0
1.573389 -0.013751 0
1.580012 0.042817 0
1.547775 0.096257 0
1.486956 0.137102 0
1.407706 0.165557 0
1.310344 0.182831 0
1.218912 0.162921 0
1.126401 0.143643 0
0.815048 0.237735 0
0.388619 0.494285 0
0.254719 0.610807 0
0.383753 0.368332 0
0.573264 0.059326 0
0.687955 -0.137647 0
0.673407 -0.310064 0
0.614809 -0.457262 0
0.701161 -0.475366 0
0.902961 -0.398302 0
1.067160 -0.347038 0
1.209574 -0.320039 0
1.329968 -0.282033 0
1.422815 -0.231475 0
1.486698 -0.152743 0
1.518064 -0.051942 0
1.503844 0.084025 0
1.428195 0.267323 0
1.343435 0.416494 0
1.336610 0.429112 0
1.309822 0.333029 0
1.148423 0.287903 0
0.987581 0.233658 0
0.903157 0.022425 0
0.862287 -0.204604 0
0.870733 -0.272884 0
0.956574 -0.224903 0
1.052105 -0.177453 0
1.122926 -0.141642 0
1.174752 -0.105538 0
1.217271 -0.074953 0
1.252483 -0.043361 0
1.272523 -0.007807 0
1.270478 0.028228 0
1.245878 0.063986 0
1.204402 0.094957 0
1.183692 0.101786 0
1.103623 0.117245 0
0.989083 0.162453 0
0.987196 0.127656 0
0.994544 0.073527 0
0.901633 0.128108 0
0.729406 0.150777 0
0.594435 0.043170 0
0.563774 -0.084002 0
0.615402 -0.144660 0
0.716531 -0.146443 0
0.830027 -0.111101 0
0.926270 -0.073971 0
0.995047 -0.054325 0
1.035020 -0.045203 0
1.057392 -0.038378 0
1.074653 -0.031827 0
1.090469 -0.026442 0
1.105185 -0.021522 0
1.118608 -0.016617 0
1.130494 -0.011660 0
1.140234 -0.008282 0
1.145767 -0.007155 0
1.000000 -0.000167 0
1.000375 -0.000534 0
1.001023 -0.000994 0
1.001909 -0.001582 0
1.003027 -0.002325 0
1.004401 -0.003272 0
1.006074 -0.004497 0
1.008118 -0.006103 0
1.010619 -0.008217 0
1.013668 -0.010956 0
1.017515 -0.014473 0
1.022398 -0.018994 0
1.028619 -0.024797 0
1.036589 -0.032220 0
1.046845 -0.041669 0
1.060114 -0.053598 0
1.077356 -0.068483 0
1.100000 -0.086658 0
1.129980 -0.107946 0
1.169607 -0.131317 0
1.222088 -0.153145 0
1.286773 -0.168999 0
1.372668 -0.165380 0
1.443703 -0.136251 0
1.486200 -0.092610 0
1.504986 -0.046335 0
1.506446 -0.005753 0
1.491876 0.025817 0
1.462005 0.043063 0
1.419572 0.036906 0
1.382414 -0.001219 0
1.381039 -0.066248 0
1.437786 -0.120751 0
1.535852 -0.117074 0
1.619183 -0.048166 0
1.642808 0.051220 0
1.608510 0.143345 0
1.537139 0.211416 0
1.450189 0.261484 0
1.351558 0.293762 0
1.245071 0.301738 0
1.091419 0.378438 0
0.874865 0.558481 0
0.692684 0.658149 0
0.731549 0.487846 0
0.838286 0.104419 0
0.909491 -0.169586 0
0.961350 -0.184693 0
0.981227 -0.148123 0
0.903374 -0.296652 0
0.805244 -0.521989 0
0.874573 -0.559573 0
1.005185 -0.488583 0
1.111401 -0.434298 0
1.199237 -0.367227 0
1.258875 -0.285831 0
1.288940 -0.186487 0
1.298688 -0.055149 0
1.307763 0.121141 0
1.345408 0.281297 0
1.316568 0.346862 0
1.155329 0.447303 0
0.978721 0.569617 0
0.882148 0.458718 0
0.959341 0.200275 0
1.017357 0.007100 0
0.932653 -0.123269 0
0.813105 -0.232668 0
0.795444 -0.286986 0
0.871805 -0.256801 0
0.960907 -0.195708 0
1.025949 -0.148726 0
1.070397 -0.114978 0
1.111965 -0.075368 0
1.148699 -0.020197 0
1.158169 0.042105 0
1.147988 0.099048 0
1.137272 0.113381 0
1.045048 0.172225 0
0.853244 0.315116 0
0.719158 0.333759 0
0.712246 0.233461 0
0.603548 0.195994 0
0.496131 0.204102 0
0.490934 0.149413 0
0.510646 0.020966 0
0.509506 -0.113961 0
0.516329 -0.207669 0
0.546259 -0.248181 0
0.616282 -0.239512 0
0.722941 -0.193402 0
0.829111 -0.132029 0
0.903325 -0.081676 0
0.941891 -0.055683 0
0.961350 -0.045993 0
0.975061 -0.040554 0
0.987904 -0.035313 0
1.000050 -0.029605 0
1.013192 -0.022971 0
1.021260 -0.016312 0
1.026439 -0.013054 0
1.000000 -0.000319 0
1.000280 -0.000970 0
1.000788 -0.001677 0
1.001506 -0.002490 0
1.002420 -0.003459 0
1.003532 -0.004655 0
1.004871 -0.006176 0
1.006482 -0.008146 0
1.008432 -0.010716 0
1.010811 -0.014061 0
1.013790 -0.018389 0
1.017545 -0.023963 0
1.022278 -0.031139 0
1.028325 -0.040375 0
1.036099 -0.052242 0
1.046282 -0.067425 0
1.059631 -0.086827 0
1.077848 -0.111452 0
1.103495 -0.141799 0
1.140155 -0.178055 0
1.194244 -0.214925 0
1.267008 -0.254837 0
1.411335 -0.257269 0
1.499585 -0.197694 0
1.536310 -0.121431 0
1.544590 -0.053965 0
1.539203 0.003958 0
1.520897 0.054023 0
1.473273 0.090578 0
1.393153 0.092637 0
1.304029 0.030442 0
1.267785 -0.095180 0
1.336289 -0.216888 0
1.486331 -0.235324 0
1.644749 -0.120705 0
1.714471 0.053493 0
1.695854 0.201928 0
1.605233 0.295424 0
1.483597 0.351139 0
1.372042 0.387951 0
1.272802 0.423062 0
1.152276 0.513851 0
1.064046 0.636471 0
1.058296 0.637602 0
1.077492 0.465207 0
0.987915 0.190391 0
0.812237 -0.063738 0
0.672505 -0.209382 0
0.716928 -0.252087 0
0.870193 -0.281279 0
0.923440 -0.446564 0
0.928415 -0.598241 0
0.994853 -0.583866 0
1.056036 -0.514091 0
1.107377 -0.429506 0
1.147212 -0.321177 0
1.152689 -0.192556 0
1.144375 -0.070765 0
1.135701 0.037305 0
1.055367 0.258518 0
0.887147 0.606573 0
0.705836 0.766960 0
0.764300 0.606211 0
0.950862 0.307283 0
0.937622 0.098449 0
0.834056 0.049113 0
0.751961 -0.000351 0
0.700789 -0.135674 0
0.672727 -0.283601 0
0.696513 -0.342916 0
0.761603 -0.295785 0
0.813747 -0.215027 0
0.821765 -0.160968 0
0.827445 -0.121662 0
0.899595 -0.054011 0
1.009065 0.028940 0
1.058485 0.084884 0
1.019644 0.197898 0
0.913534 0.385815 0
0.884525 0.443136 0
0.941229 0.303451 0
0.790552 0.243266 0
0.618754 0.289642 0
0.618209 0.240722 0
0.729209 0.136262 0
0.805884 0.024598 0
0.788402 -0.089684 0
0.709694 -0.181414 0
0.628282 -0.246396 0
0.582556 -0.287783 0
0.596701 -0.286801 0
0.666625 -0.234710 0
0.754285 -0.157985 0
0.816452 -0.096403 0
0.842773 -0.064998 0
0.852412 -0.052997 0
0.861355 -0.046512 0
0.868590 -0.041906 0
0.876334 -0.032871 0
0.885668 -0.021529 0
0.890775 -0.017454 0
1.000000 -0.000431 0
1.000197 -0.001301 0
1.000583 -0.002212 0
1.001138 -0.003206 0
1.001832 -0.004344 0
1.002651 -0.005717 0
1.003609 -0.007441 0
1.004727 -0.009658 0
1.006046 -0.012540 0
1.007607 -0.016308 0
1.009564 -0.021201 0
1.012018 -0.027478 0
1.014956 -0.035571 0
1.018689 -0.046035 0
1.023321 -0.059621 0
1.029666 -0.077127 0
1.037419 -0.100044 0
1.048953 -0.130518 0
1.066223 -0.170249 0
1.095051 -0.222062 0
1.140731 -0.279995 0
1.224514 -0.386086 0
1.483651 -0.397954 0
1.560498 -0.261222 0
1.564956 -0.137610 0
1.545101 -0.049225 0
1.524547 0.017944 0
1.514477 0.091751 0
1.488165 0.170811 0
1.346149 0.206153 0
1.063875 0.124152 0
0.947575 -0.098506 0
0.993475 -0.339295 0
1.195191 -0.425532 0
1.443135 -0.276304 0
1.597034 0.000118 0
1.672065 0.252585 0
1.654280 0.423675 0
1.560602 0.494676 0
1.425723 0.504559 0
1.282933 0.521505 0
1.166143 0.587195 0
1.122931 0.652462 0
1.129916 0.644704 0
1.098404 0.558229 0
0.994275 0.369675 0
0.804261 0.145825 0
0.686057 -0.089384 0
0.674626 -0.345811 0
0.770448 -0.503163 0
0.915520 -0.580210 0
0.973692 -0.630985 0
1.006492 -0.616204 0
1.014426 -0.546822 0
1.010119 -0.458402 0
1.052318 -0.331143 0
1.083914 -0.183650 0
1.036060 -0.038161 0
0.927271 0.210149 0
0.730785 0.529851 0
0.641124 0.696394 0
0.778594 0.570150 0
0.964713 0.324592 0
0.925929 0.285397 0
0.737657 0.317082 0
0.604592 0.192762 0
0.584584 0.009999 0
0.606435 -0.153434 0
0.624095 -0.282709 0
0.643763 -0.345675 0
0.667459 -0.312941 0
0.667046 -0.208887 0
0.624709 -0.128676 0
0.572351 -0.153196 0
0.602210 -0.201816 0
0.755160 -0.116784 0
0.890865 0.088470 0
0.943243 0.258333 0
0.996548 0.307346 0
1.034324 0.287420 0
0.916140 0.427732 0
0.681785 0.555936 0
0.650484 0.368338 0
0.732060 0.093647 0
0.773831 -0.038262 0
0.782303 -0.038227 0
0.774883 -0.017771 0
0.757580 -0.047549 0
0.739614 -0.121044 0
0.701303 -0.207931 0
0.645463 -0.277471 0
0.622227 -0.289613 0
0.658154 -0.231504 0
0.718628 -0.144172 0
0.759797 -0.081953 0
0.771893 -0.059137 0
0.763925 -0.051492 0
0.746841 -0.044584 0
0.720326 -0.040049 0
0.717164 -0.030753 0
0.720923 -0.023346 0
1.000000 -0.000500 0
1.000085 -0.001533 0
1.000372 -0.002611 0
1.000787 -0.003732 0
1.001266 -0.004965 0
1.001786 -0.006426 0
1.002358 -0.008246 0
1.002964 -0.010577 0
1.003624 -0.013590 0
1.004221 -0.017573 0
1.005059 -0.022796 0
1.006236 -0.029350 0
1.007076 -0.037806 0
1.008427 -0.048736 0
1.009239 -0.063215 0
1.011907 -0.081518 0
1.012086 -0.106110 0
1.018985 -0.140253 0
1.014916 -0.187894 0
1.038285 -0.252560 0
1.047106 -0.344384 0
1.159093 -0.597754 0
1.496579 -0.593249 0
1.420785 -0.278994 0
1.325672 -0.106030 0
1.285955 -0.013551 0
1.214394 0.034586 0
1.200551 0.090408 0
1.285259 0.258909 0
1.258403 0.516929 0
1.053619 0.429018 0
0.572152 -0.024778 0
0.355608 -0.464502 0
0.446465 -0.684982 0
0.808010 -0.522546 0
1.170048 -0.175435 0
1.334065 0.144683 0
1.423528 0.406889 0
1.467849 0.579698 0
1.431359 0.665621 0
1.345208 0.682643 0
1.252703 0.673854 0
1.182042 0.672700 0
1.134363 0.662129 0
1.105448 0.600848 0
1.067302 0.484535 0
0.975797 0.244481 0
0.963073 -0.079747 0
0.882929 -0.336478 0
0.745682 -0.522173 0
0.702212 -0.649808 0
0.753383 -0.689213 0
0.821213 -0.624599 0
0.831372 -0.517718 0
0.783472 -0.467398 0
0.794920 -0.394972 0
0.923091 -0.176298 0
0.999421 0.085879 0
0.966626 0.342581 0
0.947820 0.544665 0
0.999875 0.558765 0
1.055831 0.443372 0
0.900092 0.458876 0
0.643472 0.534340 0
0.556732 0.419787 0
0.567646 0.202187 0
0.597004 -0.002193 0
0.583131 -0.175184 0
0.536883 -0.320929 0
0.515755 -0.386278 0
0.561544 -0.319067 0
0.644477 -0.172277 0
0.753020 -0.066273 0
0.822707 -0.099162 0
0.753420 -0.236818 0
0.629079 -0.259714 0
0.652182 -0.103198 0
0.751830 0.092217 0
0.783801 0.294736 0
0.686521 0.523544 0
0.555146 0.655990 0
0.677006 0.508923 0
0.852608 0.239368 0
0.833696 0.117376 0
0.689194 0.086019 0
0.594973 0.023547 0
0.606145 -0.064962 0
0.661976 -0.146145 0
0.721307 -0.190119 0
0.771170 -0.193633 0
0.775413 -0.207726 0
0.724420 -0.247401 0
0.678501 -0.254386 0
0.680180 -0.198047 0
0.702613 -0.118263 0
0.705269 -0.057125 0
0.687925 -0.021462 0
0.683988 0.001691 0
0.688820 -0.003195 0
0.689994 -0.022127 0
0.693240 -0.025358 0
1.000000 -0.000500 0
1.000031 -0.001655 0
1.000115 -0.002908 0
1.000428 -0.004093 0
1.000759 -0.005336 0
1.000990 -0.006804 0
1.001208 -0.008613 0
1.001320 -0.010918 0
1.001616 -0.013792 0
1.001320 -0.017738 0
1.000664 -0.023212 0
1.000528 -0.029491 0
0.999875 -0.037759 0
0.999314 -0.048194 0
0.997391 -0.063099 0
0.994854 -0.079971 0
0.991193 -0.107119 0
0.988022 -0.133345 0
0.969174 -0.189546 0
0.976766 -0.254249 0
0.928979 -0.400800 0
1.034932 -0.835556 0
0.732030 -0.569331 0
0.002012 0.000000 0
0.003072 0.000000 0
0.523738 0.064834 0
0.530008 0.103352 0
0.400445 0.020888 0
0.736635 0.112960 0
0.795549 0.437795 0
0.543671 0.810405 0
0.065308 0.599507 0
-0.161202 -0.213606 0
-0.206806 -0.877932 0
-0.045018 -0.999886 0
0.469810 -0.525937 0
0.844764 -0.000894 0
1.065220 0.289892 0
1.179626 0.486846 0
1.243899 0.627201 0
1.259889 0.700162 0
1.213930 0.750361 0
1.158338 0.770802 0
1.139816 0.721299 0
1.143375 0.625290 0
1.108269 0.499326 0
1.037810 0.250054 0
0.887349 0.003484 0
0.718739 -0.128420 0
0.595058 -0.322446 0
0.530843 -0.587911 0
0.534879 -0.749987 0
0.570739 -0.694192 0
0.619452 -0.509080 0
0.638320 -0.421951 0
0.633754 -0.470761 0
0.703686 -0.388150 0
0.846309 -0.081696 0
0.931148 0.261751 0
0.998184 0.496602 0
1.027029 0.588383 0
0.934248 0.669933 0
0.707151 0.736952 0
0.580315 0.628758 0
0.518495 0.392908 0
0.515786 0.152491 0
0.593961 -0.005485 0
0.668917 -0.093312 0
0.599734 -0.215333 0
0.422180 -0.370336 0
0.352979 -0.441661 0
0.454274 -0.400362 0
0.632783 -0.306906 0
0.768415 -0.153595 0
0.750878 -0.008186 0
0.601591 -0.015545 0
0.506100 -0.034280 0
0.489585 0.126715 0
0.492110 0.372655 0
0.556095 0.516076 0
0.747364 0.437248 0
0.956847 0.258475 0
0.948538 0.211648 0
0.789238 0.257061 0
0.662110 0.200461 0
0.637713 0.044822 0
0.694474 -0.084775 0
0.754374 -0.162711 0
0.753703 -0.230238 0
0.740584 -0.262038 0
0.775012 -0.230722 0
0.802544 -0.192702 0
0.767453 -0.187264 0
0.706398 -0.168284 0
0.667956 -0.107043 0
0.650107 -0.044450 0
0.656144 -0.030212 0
0.692343 -0.045480 0
0.746048 -0.046056 0
0.803981 -0.035175 0
0.814108 -0.029581 0
1.000000 -0.000516 0
1.000059 -0.001630 0
0.999977 -0.003002 0
0.999990 -0.004369 0
1.000245 -0.005521 0
1.000385 -0.006870 0
1.000262 -0.008571 0
0.999854 -0.010980 0
1.000443 -0.013585 0
0.998755 -0.016618 0
0.998351 -0.022001 0
0.995871 -0.028557 0
0.997016 -0.036589 0
0.990387 -0.046249 0
0.990799 -0.058753 0
0.978619 -0.075319 0
0.979754 -0.099276 0
0.950680 -0.118231 0
0.952494 -0.176636 0
0.881988 -0.212364 0
0.866394 -0.402549 0
0.665452 -0.491115 0
0.000000 -0.000867 0
-0.624977 0.184436 0
-0.540277 0.000000 0
0.000000 0.000000 0
0.062266 0.155312 0
0.112837 -0.116217 0
0.125486 -0.136193 0
0.169830 0.709894 0
-0.245218 1.159259 0
-0.174426 0.680097 0
-0.166530 -0.192387 0
-0.199460 -0.801166 0
-0.280543 -1.199161 0
-0.119705 -1.065216 0
0.412577 -0.450726 0
0.747319 0.072027 0
0.944246 0.401019 0
1.048035 0.585359 0
1.112787 0.712613 0
1.167973 0.775405 0
1.202717 0.746814 0
1.223555 0.677092 0
1.176666 0.632395 0
1.080809 0.590100 0
0.960734 0.465401 0
0.794925 0.239325 0
0.725564 -0.044186 0
0.721986 -0.334277 0
0.657950 -0.589629 0
0.634292 -0.729109 0
0.629724 -0.709172 0
0.671943 -0.585299 0
0.724702 -0.481700 0
0.689571 -0.460337 0
0.556731 -0.388853 0
0.474089 -0.141583 0
0.496799 0.190706 0
0.583472 0.448784 0
0.640985 0.622701 0
0.603192 0.763251 0
0.570348 0.812810 0
0.586422 0.722996 0
0.654515 0.484316 0
0.705589 0.126722 0
0.655313 -0.155324 0
0.658953 -0.180957 0
0.686866 -0.074191 0
0.572812 -0.139521 0
0.355646 -0.351160 0
0.238408 -0.452080 0
0.256872 -0.380413 0
0.329353 -0.217255 0
0.445583 -0.069992 0
0.556560 -0.014936 0
0.570567 0.008808 0
0.578402 0.106208 0
0.651879 0.228227 0
0.787790 0.268291 0
0.893763 0.255239 0
0.860497 0.307750 0
0.729674 0.406977 0
0.683528 0.403804 0
0.756672 0.237544 0
0.814841 -0.008818 0
0.801556 -0.181622 0
0.797892 -0.205374 0
0.801840 -0.176330 0
0.756959 -0.214943 0
0.716026 -0.269687 0
0.738948 -0.239843 0
0.776266 -0.158241 0
0.779263 -0.098551 0
0.773612 -0.061972 0
0.777165 -0.045314 0
0.786422 -0.063699 0
0.769523 -0.088214 0
0.780234 -0.114834 0
0.861326 -0.090188 0
0.874863 -0.044337 0
1.000000 -0.000545 0
1.000047 -0.001615 0
0.999907 -0.002833 0
0.999829 -0.004355 0
0.999755 -0.005726 0
1.000163 -0.006816 0
0.999475 -0.008078 0
0.998972 -0.011095 0
0.997866 -0.012689 0
0.998841 -0.015643 0
0.996468 -0.020324 0
0.994730 -0.028153 0
0.989726 -0.032271 0
0.989702 -0.041974 0
0.981189 -0.051329 0
0.974862 -0.068925 0
0.958709 -0.079179 0
0.938293 -0.106085 0
0.922082 -0.120853 0
0.840119 -0.168149 0
0.810809 -0.184264 0
0.470453 -0.052161 0
0.352473 0.013123 0
0.000000 0.000000 0
0.000000 0.000000 0
0.000000 0.000000 0
0.000000 0.000000 0
0.167365 -0.030278 0
-0.090531 0.055968 0
-0.394296 0.808500 0
-0.358055 1.154662 0
-0.025311 0.520820 0
0.066080 -0.188571 0
0.065376 -0.763918 0
0.044952 -1.079641 0
-0.089870 -1.219056 0
0.125316 -0.867917 0
0.475523 -0.241778 0
0.752716 0.186130 0
0.950741 0.458661 0
1.063349 0.580224 0
1.118273 0.660432 0
1.161348 0.715220 0
1.128944 0.747350 0
1.034390 0.768036 0
0.951584 0.715259 0
0.913636 0.535938 0
0.933781 0.238653 0
0.996010 -0.055481 0
1.040731 -0.254831 0
0.978272 -0.500217 0
0.814754 -0.721761 0
0.739249 -0.731844 0
0.739214 -0.604058 0
0.751827 -0.439579 0
0.676667 -0.302791 0