# vtk DataFile Version 2.0
generated by CFD-lab course output (written by Tobias Neckel) 
ASCII

DATASET STRUCTURED_GRID
DIMENSIONS  101 21 1 
POINTS 2121 float

0.000000 0.000000 0
0.100000 0.000000 0
0.200000 0.000000 0
0.300000 0.000000 0
0.400000 0.000000 0
0.500000 0.000000 0
0.600000 0.000000 0
0.700000 0.000000 0
0.800000 0.000000 0
0.900000 0.000000 0
1.000000 0.000000 0
1.100000 0.000000 0
1.200000 0.000000 0
1.300000 0.000000 0
1.400000 0.000000 0
1.500000 0.000000 0
1.600000 0.000000 0
1.700000 0.000000 0
1.800000 0.000000 0
1.900000 0.000000 0
2.000000 0.000000 0
2.100000 0.000000 0
2.200000 0.000000 0
2.300000 0.000000 0
2.400000 0.000000 0
2.500000 0.000000 0
2.600000 0.000000 0
2.700000 0.000000 0
2.800000 0.000000 0
2.900000 0.000000 0
3.000000 0.000000 0
3.100000 0.000000 0
3.200000 0.000000 0
3.300000 0.000000 0
3.400000 0.000000 0
3.500000 0.000000 0
3.600000 0.000000 0
3.700000 0.000000 0
3.800000 0.000000 0
3.900000 0.000000 0
4.000000 0.000000 0
4.100000 0.000000 0
4.200000 0.000000 0
4.300000 0.000000 0
4.400000 0.000000 0
4.500000 0.000000 0
4.600000 0.000000 0
4.700000 0.000000 0
4.800000 0.000000 0
4.900000 0.000000 0
5.000000 0.000000 0
5.100000 0.000000 0
5.200000 0.000000 0
5.300000 0.000000 0
5.400000 0.000000 0
5.500000 0.000000 0
5.600000 0.000000 0
5.700000 0.000000 0
5.800000 0.000000 0
5.900000 0.000000 0
6.000000 0.000000 0
6.100000 0.000000 0
6.200000 0.000000 0
6.300000 0.000000 0
6.400000 0.000000 0
6.500000 0.000000 0
6.600000 0.000000 0
6.700000 0.000000 0
6.800000 0.000000 0
6.900000 0.000000 0
7.000000 0.000000 0
7.100000 0.000000 0
7.200000 0.000000 0
7.300000 0.000000 0
7.400000 0.000000 0
7.500000 0.000000 0
7.600000 0.000000 0
7.700000 0.000000 0
7.800000 0.000000 0
7.900000 0.000000 0
8.000000 0.000000 0
8.100000 0.000000 0
8.200000 0.000000 0
8.300000 0.000000 0
8.400000 0.000000 0
8.500000 0.000000 0
8.600000 0.000000 0
8.700000 0.000000 0
8.800000 0.000000 0
8.900000 0.000000 0
9.000000 0.000000 0
9.100000 0.000000 0
9.200000 0.000000 0
9.300000 0.000000 0
9.400000 0.000000 0
9.500000 0.000000 0
9.600000 0.000000 0
9.700000 0.000000 0
9.800000 0.000000 0
9.900000 0.000000 0
10.000000 0.000000 0
0.000000 0.100000 0
0.100000 0.100000 0
0.200000 0.100000 0
0.300000 0.100000 0
0.400000 0.100000 0
0.500000 0.100000 0
0.600000 0.100000 0
0.700000 0.100000 0
0.800000 0.100000 0
0.900000 0.100000 0
1.000000 0.100000 0
1.100000 0.100000 0
1.200000 0.100000 0
1.300000 0.100000 0
1.400000 0.100000 0
1.500000 0.100000 0
1.600000 0.100000 0
1.700000 0.100000 0
1.800000 0.100000 0
1.900000 0.100000 0
2.000000 0.100000 0
2.100000 0.100000 0
2.200000 0.100000 0
2.300000 0.100000 0
2.400000 0.100000 0
2.500000 0.100000 0
2.600000 0.100000 0
2.700000 0.100000 0
2.800000 0.100000 0
2.900000 0.100000 0
3.000000 0.100000 0
3.100000 0.100000 0
3.200000 0.100000 0
3.300000 0.100000 0
3.400000 0.100000 0
3.500000 0.100000 0
3.600000 0.100000 0
3.700000 0.100000 0
3.800000 0.100000 0
3.900000 0.100000 0
4.000000 0.100000 0
4.100000 0.100000 0
4.200000 0.100000 0
4.300000 0.100000 0
4.400000 0.100000 0
4.500000 0.100000 0
4.600000 0.100000 0
4.700000 0.100000 0
4.800000 0.100000 0
4.900000 0.100000 0
5.000000 0.100000 0
5.100000 0.100000 0
5.200000 0.100000 0
5.300000 0.100000 0
5.400000 0.100000 0
5.500000 0.100000 0
5.600000 0.100000 0
5.700000 0.100000 0
5.800000 0.100000 0
5.900000 0.100000 0
6.000000 0.100000 0
6.100000 0.100000 0
6.200000 0.100000 0
6.300000 0.100000 0
6.400000 0.100000 0
6.500000 0.100000 0
6.600000 0.100000 0
6.700000 0.100000 0
6.800000 0.100000 0
6.900000 0.100000 0
7.000000 0.100000 0
7.100000 0.100000 0
7.200000 0.100000 0
7.300000 0.100000 0
7.400000 0.100000 0
7.500000 0.100000 0
7.600000 0.100000 0
7.700000 0.100000 0
7.800000 0.100000 0
7.900000 0.100000 0
8.000000 0.100000 0
8.100000 0.100000 0
8.200000 0.100000 0
8.300000 0.100000 0
8.400000 0.100000 0
8.500000 0.100000 0
8.600000 0.100000 0
8.700000 0.100000 0
8.800000 0.100000 0
8.900000 0.100000 0
9.000000 0.100000 0
9.100000 0.100000 0
9.200000 0.100000 0
9.300000 0.100000 0
9.400000 0.100000 0
9.500000 0.100000 0
9.600000 0.100000 0
9.700000 0.100000 0
9.800000 0.100000 0
9.900000 0.100000 0
10.000000 0.100000 0
0.000000 0.200000 0
0.100000 0.200000 0
0.200000 0.200000 0
0.300000 0.200000 0
0.400000 0.200000 0
0.500000 0.200000 0
0.600000 0.200000 0
0.700000 0.200000 0
0.800000 0.200000 0
0.900000 0.200000 0
1.000000 0.200000 0
1.100000 0.200000 0
1.200000 0.200000 0
1.300000 0.200000 0
1.400000 0.200000 0
1.500000 0.200000 0
1.600000 0.200000 0
1.700000 0.200000 0
1.800000 0.200000 0
1.900000 0.200000 0
2.000000 0.200000 0
2.100000 0.200000 0
2.200000 0.200000 0
2.300000 0.200000 0
2.400000 0.200000 0
2.500000 0.200000 0
2.600000 0.200000 0
2.700000 0.200000 0
2.800000 0.200000 0
2.900000 0.200000 0
3.000000 0.200000 0
3.100000 0.200000 0
3.200000 0.200000 0
3.300000 0.200000 0
3.400000 0.200000 0
3.500000 0.200000 0
3.600000 0.200000 0
3.700000 0.200000 0
3.800000 0.200000 0
3.900000 0.200000 0
4.000000 0.200000 0
4.100000 0.200000 0
4.200000 0.200000 0
4.300000 0.200000 0
4.400000 0.200000 0
4.500000 0.200000 0
4.600000 0.200000 0
4.700000 0.200000 0
4.800000 0.200000 0
4.900000 0.200000 0
5.000000 0.200000 0
5.100000 0.200000 0
5.200000 0.200000 0
5.300000 0.200000 0
5.400000 0.200000 0
5.500000 0.200000 0
5.600000 0.200000 0
5.700000 0.200000 0
5.800000 0.200000 0
5.900000 0.200000 0
6.000000 0.200000 0
6.100000 0.200000 0
6.200000 0.200000 0
6.300000 0.200000 0
6.400000 0.200000 0
6.500000 0.200000 0
6.600000 0.200000 0
6.700000 0.200000 0
6.800000 0.200000 0
6.900000 0.200000 0
7.000000 0.200000 0
7.100000 0.200000 0
7.200000 0.200000 0
7.300000 0.200000 0
7.400000 0.200000 0
7.500000 0.200000 0
7.600000 0.200000 0
7.700000 0.200000 0
7.800000 0.200000 0
7.900000 0.200000 0
8.000000 0.200000 0
8.100000 0.200000 0
8.200000 0.200000 0
8.300000 0.200000 0
8.400000 0.200000 0
8.500000 0.200000 0
8.600000 0.200000 0
8.700000 0.200000 0
8.800000 0.200000 0
8.900000 0.200000 0
9.000000 0.200000 0
9.100000 0.200000 0
9.200000 0.200000 0
9.300000 0.200000 0
9.400000 0.200000 0
9.500000 0.200000 0
9.600000 0.200000 0
9.700000 0.200000 0
9.800000 0.200000 0
9.900000 0.200000 0
10.000000 0.200000 0
0.000000 0.300000 0
0.100000 0.300000 0
0.200000 0.300000 0
0.300000 0.300000 0
0.400000 0.300000 0
0.500000 0.300000 0
0.600000 0.300000 0
0.700000 0.300000 0
0.800000 0.300000 0
0.900000 0.300000 0
1.000000 0.300000 0
1.100000 0.300000 0
1.200000 0.300000 0
1.300000 0.300000 0
1.400000 0.300000 0
1.500000 0.300000 0
1.600000 0.300000 0
1.700000 0.300000 0
1.800000 0.300000 0
1.900000 0.300000 0
2.000000 0.300000 0
2.100000 0.300000 0
2.200000 0.300000 0
2.300000 0.300000 0
2.400000 0.300000 0
2.500000 0.300000 0
2.600000 0.300000 0
2.700000 0.300000 0
2.800000 0.300000 0
2.900000 0.300000 0
3.000000 0.300000 0
3.100000 0.300000 0
3.200000 0.300000 0
3.300000 0.300000 0
3.400000 0.300000 0
3.500000 0.300000 0
3.600000 0.300000 0
3.700000 0.300000 0
3.800000 0.300000 0
3.900000 0.300000 0
4.000000 0.300000 0
4.100000 0.300000 0
4.200000 0.300000 0
4.300000 0.300000 0
4.400000 0.300000 0
4.500000 0.300000 0
4.600000 0.300000 0
4.700000 0.300000 0
4.800000 0.300000 0
4.900000 0.300000 0
5.000000 0.300000 0
5.100000 0.300000 0
5.200000 0.300000 0
5.300000 0.300000 0
5.400000 0.300000 0
5.500000 0.300000 0
5.600000 0.300000 0
5.700000 0.300000 0
5.800000 0.300000 0
5.900000 0.300000 0
6.000000 0.300000 0
6.100000 0.300000 0
6.200000 0.300000 0
6.300000 0.300000 0
6.400000 0.300000 0
6.500000 0.300000 0
6.600000 0.300000 0
6.700000 0.300000 0
6.800000 0.300000 0
6.900000 0.300000 0
7.000000 0.300000 0
7.100000 0.300000 0
7.200000 0.300000 0
7.300000 0.300000 0
7.400000 0.300000 0
7.500000 0.300000 0
7.600000 0.300000 0
7.700000 0.300000 0
7.800000 0.300000 0
7.900000 0.300000 0
8.000000 0.300000 0
8.100000 0.300000 0
8.200000 0.300000 0
8.300000 0.300000 0
8.400000 0.300000 0
8.500000 0.300000 0
8.600000 0.300000 0
8.700000 0.300000 0
8.800000 0.300000 0
8.900000 0.300000 0
9.000000 0.300000 0
9.100000 0.300000 0
9.200000 0.300000 0
9.300000 0.300000 0
9.400000 0.300000 0
9.500000 0.300000 0
9.600000 0.300000 0
9.700000 0.300000 0
9.800000 0.300000 0
9.900000 0.300000 0
10.000000 0.300000 0
0.000000 0.400000 0
0.100000 0.400000 0
0.200000 0.400000 0
0.300000 0.400000 0
0.400000 0.400000 0
0.500000 0.400000 0
0.600000 0.400000 0
0.700000 0.400000 0
0.800000 0.400000 0
0.900000 0.400000 0
1.000000 0.400000 0
1.100000 0.400000 0
1.200000 0.400000 0
1.300000 0.400000 0
1.400000 0.400000 0
1.500000 0.400000 0
1.600000 0.400000 0
1.700000 0.400000 0
1.800000 0.400000 0
1.900000 0.400000 0
2.000000 0.400000 0
2.100000 0.400000 0
2.200000 0.400000 0
2.300000 0.400000 0
2.400000 0.400000 0
2.500000 0.400000 0
2.600000 0.400000 0
2.700000 0.400000 0
2.800000 0.400000 0
2.900000 0.400000 0
3.000000 0.400000 0
3.100000 0.400000 0
3.200000 0.400000 0
3.300000 0.400000 0
3.400000 0.400000 0
3.500000 0.400000 0
3.600000 0.400000 0
3.700000 0.400000 0
3.800000 0.400000 0
3.900000 0.400000 0
4.000000 0.400000 0
4.100000 0.400000 0
4.200000 0.400000 0
4.300000 0.400000 0
4.400000 0.400000 0
4.500000 0.400000 0
4.600000 0.400000 0
4.700000 0.400000 0
4.800000 0.400000 0
4.900000 0.400000 0
5.000000 0.400000 0
5.100000 0.400000 0
5.200000 0.400000 0
5.300000 0.400000 0
5.400000 0.400000 0
5.500000 0.400000 0
5.600000 0.400000 0
5.700000 0.400000 0
5.800000 0.400000 0
5.900000 0.400000 0
6.000000 0.400000 0
6.100000 0.400000 0
6.200000 0.400000 0
6.300000 0.400000 0
6.400000 0.400000 0
6.500000 0.400000 0
6.600000 0.400000 0
6.700000 0.400000 0
6.800000 0.400000 0
6.900000 0.400000 0
7.000000 0.400000 0
7.100000 0.400000 0
7.200000 0.400000 0
7.300000 0.400000 0
7.400000 0.400000 0
7.500000 0.400000 0
7.600000 0.400000 0
7.700000 0.400000 0
7.800000 0.400000 0
7.900000 0.400000 0
8.000000 0.400000 0
8.100000 0.400000 0
8.200000 0.400000 0
8.300000 0.400000 0
8.400000 0.400000 0
8.500000 0.400000 0
8.600000 0.400000 0
[...]
POINT_DATA 2121 

VECTORS velocity float
0.500000 0.000000 0
0.000001 0.000000 0
0.000003 0.000000 0
0.000005 0.000000 0
0.000003 0.000000 0
-0.000009 0.000000 0
-0.000035 0.000000 0
-0.000080 0.000000 0
-0.000121 0.000000 0
-0.000205 0.000000 0
-0.000319 0.000000 0
-0.000283 0.000000 0
-0.000327 0.000000 0
-0.000414 0.000000 0
-0.000520 0.000000 0
-0.000644 0.000000 0
-0.000786 0.000000 0
-0.000949 0.000000 0
-0.001141 0.000000 0
-0.001367 0.000000 0
-0.001641 0.000000 0
-0.001970 0.000000 0
-0.002354 0.000000 0
-0.002781 0.000000 0
-0.003233 0.000000 0
-0.003658 0.000000 0
-0.004127 0.000000 0
-0.004604 0.000000 0
-0.004910 0.000000 0
-0.004710 0.000000 0
-0.003631 0.000000 0
-0.001541 0.000000 0
0.001218 0.000000 0
0.004055 0.000000 0
0.006468 0.000000 0
0.008182 0.000000 0
0.009081 0.000000 0
0.009328 0.000000 0
0.009102 0.000000 0
0.008490 0.000000 0
0.007531 0.000000 0
0.006189 0.000000 0
0.004595 0.000000 0
0.004186 0.000000 0
0.003917 0.000000 0
0.002188 0.000000 0
0.001912 0.000000 0
0.002581 0.000000 0
0.001324 0.000000 0
-0.000351 0.000000 0
-0.000927 0.000000 0
-0.000957 0.000000 0
-0.000950 0.000000 0
-0.000968 0.000000 0
-0.000950 0.000000 0
-0.000895 0.000000 0
-0.000831 0.000000 0
-0.000773 0.000000 0
-0.000728 0.000000 0
-0.000695 0.000000 0
-0.000668 0.000000 0
-0.000645 0.000000 0
-0.000626 0.000000 0
-0.000606 0.000000 0
-0.000585 0.000000 0
-0.000564 0.000000 0
-0.000543 0.000000 0
-0.000518 0.000000 0
-0.000495 0.000000 0
-0.000478 0.000000 0
-0.000458 0.000000 0
-0.000429 0.000000 0
-0.000406 0.000000 0
-0.000399 0.000000 0
-0.000393 0.000000 0
-0.000365 0.000000 0
-0.000324 0.000000 0
-0.000303 0.000000 0
-0.000319 0.000000 0
-0.000341 0.000000 0
-0.000329 0.000000 0
-0.000310 0.000000 0
-0.000294 0.000000 0
-0.000281 0.000000 0
-0.000270 0.000000 0
-0.000262 0.000000 0
-0.000255 0.000000 0
-0.000249 0.000000 0
-0.000244 0.000000 0
-0.000240 0.000000 0
-0.000237 0.000000 0
-0.000235 0.000000 0
-0.000233 0.000000 0
-0.000231 0.000000 0
-0.000229 0.000000 0
-0.000228 0.000000 0
-0.000227 0.000000 0
-0.000226 0.000000 0
-0.000225 0.000000 0
-0.000224 0.000000 0
-0.000222 0.000000 0
1.000000 0.000398 0
0.999752 0.001024 0
0.999359 0.001333 0
0.998918 0.001426 0
0.998527 0.001390 0
0.998294 0.001214 0
0.998346 0.000864 0
0.998836 0.000263 0
0.999949 -0.000570 0
1.001890 -0.001885 0
1.004935 -0.003518 0
1.009276 -0.004769 0
1.015126 -0.006251 0
1.022991 -0.008639 0
1.033493 -0.011798 0
1.047384 -0.015791 0
1.065557 -0.020710 0
1.089031 -0.026575 0
1.118847 -0.033246 0
1.155878 -0.040276 0
1.200400 -0.046805 0
1.251535 -0.051607 0
1.307003 -0.053220 0
1.361746 -0.051338 0
1.412256 -0.047309 0
1.456922 -0.043025 0
1.496649 -0.040922 0
1.535664 -0.042583 0
1.578924 -0.046983 0
1.629406 -0.050245 0
1.684287 -0.046617 0
1.732421 -0.032093 0
1.759505 -0.007728 0
1.756256 0.021188 0
1.721627 0.048625 0
1.660839 0.070239 0
1.582122 0.083981 0
1.494212 0.090488 0
1.404042 0.091359 0
1.316853 0.087449 0
1.236165 0.079085 0
1.164230 0.066149 0
1.101832 0.051779 0
1.048578 0.047255 0
1.006130 0.044770 0
0.977565 0.030565 0
0.944420 0.021753 0
0.902956 0.022067 0
0.872815 0.015102 0
0.866840 0.002386 0
0.875868 -0.005335 0
0.883959 -0.007032 0
0.890793 -0.007155 0
0.897773 -0.007126 0
0.904891 -0.006881 0
0.911531 -0.006363 0
0.917477 -0.005738 0
0.922791 -0.005149 0
0.927608 -0.004657 0
0.932043 -0.004265 0
0.936174 -0.003941 0
0.940062 -0.003665 0
0.943731 -0.003429 0
0.947172 -0.003202 0
0.950395 -0.002969 0
0.953408 -0.002754 0
0.956192 -0.002547 0
0.958736 -0.002316 0
0.961085 -0.002104 0
0.963254 -0.001953 0
0.965190 -0.001787 0
0.966886 -0.001545 0
0.968439 -0.001338 0
0.969908 -0.001278 0
0.971212 -0.001245 0
0.972248 -0.001034 0
0.973063 -0.000683 0
0.973837 -0.000490 0
0.974688 -0.000595 0
0.975538 -0.000779 0
0.976262 -0.000790 0
0.976882 -0.000666 0
0.977410 -0.000541 0
0.977854 -0.000437 0
0.978227 -0.000352 0
0.978539 -0.000283 0
0.978799 -0.000228 0
0.979017 -0.000184 0
0.979199 -0.000148 0
0.979351 -0.000120 0
0.979479 -0.000098 0
0.979588 -0.000081 0
0.979681 -0.000069 0
0.979762 -0.000060 0
0.979835 -0.000057 0
0.979905 -0.000055 0
0.979976 -0.000071 0
0.980058 -0.000087 0
0.980161 -0.000191 0
0.980317 -0.000370 0
0.980528 -0.000443 0
1.000000 0.000229 0
1.000250 0.000612 0
1.000647 0.000816 0
1.001122 0.000815 0
1.001728 0.000607 0
1.002538 0.000163 0
1.003644 -0.000559 0
1.005140 -0.001619 0
1.007102 -0.003069 0
1.009719 -0.005001 0
1.012906 -0.007402 0
1.017101 -0.010206 0
1.023051 -0.013729 0
1.030879 -0.018380 0
1.041062 -0.024406 0
1.054294 -0.032076 0
1.071497 -0.041659 0
1.093842 -0.053302 0
1.122675 -0.066858 0
1.159507 -0.081563 0
1.205392 -0.095666 0
1.259919 -0.106611 0
1.322379 -0.110219 0
1.382478 -0.105261 0
1.434863 -0.095183 0
1.477485 -0.084399 0
1.512176 -0.078748 0
1.544550 -0.082280 0
1.582581 -0.093746 0
1.633828 -0.105367 0
1.700024 -0.103018 0
1.766003 -0.075221 0
1.808404 -0.023837 0
1.812074 0.037877 0
1.776552 0.095415 0
1.711859 0.139504 0
1.629165 0.166627 0
1.536746 0.178081 0
1.440441 0.177360 0
1.345135 0.167878 0
1.256286 0.152625 0
1.177436 0.134335 0
1.106675 0.115653 0
1.047287 0.095704 0
1.018516 0.071017 0
1.027884 0.061714 0
1.025491 0.074612 0
1.008446 0.071609 0
0.987490 0.036120 0
0.959856 -0.003049 0
0.930178 -0.017115 0
0.915248 -0.014920 0
0.913362 -0.013808 0
0.918931 -0.014093 0
0.926772 -0.013753 0
0.933737 -0.012580 0
0.939564 -0.011254 0
0.944653 -0.010125 0
0.949328 -0.009245 0
0.953755 -0.008560 0
0.957998 -0.008014 0
0.962074 -0.007550 0
0.965962 -0.007103 0
0.969642 -0.006657 0
0.973112 -0.006229 0
0.976351 -0.005790 0
0.979338 -0.005321 0
0.982096 -0.004886 0
0.984648 -0.004512 0
0.986940 -0.004099 0
0.988943 -0.003625 0
0.990763 -0.003242 0
0.992493 -0.003015 0
0.994040 -0.002767 0
0.995264 -0.002333 0
0.996232 -0.001844 0
0.997198 -0.001582 0
0.998309 -0.001618 0
0.999404 -0.001695 0
1.000221 -0.001567 0
1.000817 -0.001338 0
1.001331 -0.001141 0
1.001786 -0.000965 0
1.002187 -0.000811 0
1.002537 -0.000678 0
1.002841 -0.000566 0
1.003104 -0.000472 0
1.003329 -0.000393 0
1.003523 -0.000328 0
1.003689 -0.000274 0
1.003832 -0.000230 0
1.003954 -0.000195 0
1.004060 -0.000168 0
1.004151 -0.000148 0
1.004234 -0.000137 0
1.004307 -0.000134 0
1.004382 -0.000147 0
1.004444 -0.000179 0
1.004526 -0.000252 0
1.004531 -0.000360 0
1.004499 -0.000416 0
1.000000 0.000134 0
1.000136 0.000360 0
1.000387 0.000453 0
1.000721 0.000339 0
1.001175 -0.000033 0
1.001810 -0.000710 0
1.002692 -0.001744 0
1.003889 -0.003202 0
1.005484 -0.005156 0
1.007589 -0.007695 0
1.010297 -0.010906 0
1.013878 -0.014920 0
1.018700 -0.020035 0
1.025048 -0.026655 0
1.033361 -0.035217 0
1.044271 -0.046231 0
1.058706 -0.060262 0
1.078076 -0.077758 0
1.104026 -0.098915 0
1.139444 -0.122998 0
1.186670 -0.147221 0
1.245845 -0.168597 0
1.326528 -0.175781 0
1.397470 -0.163825 0
1.450745 -0.142319 0
1.488223 -0.120340 0
1.513169 -0.107989 0
1.531299 -0.112990 0
1.555808 -0.136263 0
1.600497 -0.167689 0
1.682739 -0.178793 0
1.780038 -0.140474 0
1.851453 -0.053799 0
1.870709 0.053040 0
1.831606 0.148839 0
1.749324 0.217625 0
1.650337 0.259094 0
1.553084 0.279212 0
1.459902 0.282970 0
1.370112 0.271605 0
1.283157 0.246785 0
1.203352 0.215761 0
1.135342 0.181929 0
1.085195 0.135415 0
1.040333 0.064174 0
0.968550 0.023592 0
0.931106 0.041193 0
0.931482 0.060069 0
0.934819 0.063694 0
0.922644 0.059700 0
0.903694 0.039276 0
0.897124 0.009786 0
0.901894 -0.010836 0
0.913836 -0.020533 0
0.926086 -0.021684 0
0.933663 -0.019154 0
0.938937 -0.016652 0
0.943518 -0.014911 0
0.947988 -0.013756 0
0.952472 -0.012932 0
0.956937 -0.012257 0
0.961294 -0.011626 0
0.965471 -0.010995 0
0.969436 -0.010349 0
0.973157 -0.009675 0
0.976589 -0.008978 0
0.979742 -0.008289 0
0.982650 -0.007623 0
0.985265 -0.006946 0
0.987557 -0.006245 0
0.989625 -0.005606 0
0.991545 -0.005092 0
0.993253 -0.004613 0
0.994643 -0.004047 0
0.995774 -0.003433 0
0.996864 -0.002964 0
0.998054 -0.002758 0
0.999218 -0.002693 0
1.000079 -0.002504 0
1.000724 -0.002190 0
1.001296 -0.001897 0
1.001797 -0.001632 0
1.002234 -0.001395 0
1.002615 -0.001186 0
1.002947 -0.001004 0
1.003235 -0.000847 0
1.003483 -0.000714 0
1.003697 -0.000601 0
1.003880 -0.000506 0
1.004036 -0.000426 0
1.004170 -0.000360 0
1.004285 -0.000307 0
1.004383 -0.000264 0
1.004468 -0.000232 0
1.004541 -0.000210 0
1.004605 -0.000201 0
1.004662 -0.000206 0
1.004707 -0.000229 0
1.004740 -0.000275 0
1.004736 -0.000340 0
1.004697 -0.000376 0
1.000000 0.000078 0
1.000072 0.000208 0
1.000209 0.000224 0
1.000392 0.000020 0
1.000660 -0.000489 0
1.001093 -0.001361 0
1.001725 -0.002645 0
1.002582 -0.004418 0
1.003736 -0.006775 0
1.005276 -0.009821 0
1.007282 -0.013697 0
1.009926 -0.018614 0
1.013386 -0.024904 0
1.017886 -0.033046 0
1.023785 -0.043634 0
1.031563 -0.057427 0
1.041964 -0.075469 0
1.056913 -0.098626 0
1.077251 -0.128230 0
1.109560 -0.164212 0
1.156154 -0.202071 0
1.218019 -0.246473 0
1.348778 -0.261848 0
1.433391 -0.229482 0
1.475340 -0.185938 0
1.501073 -0.146824 0
1.509552 -0.121826 0
1.499467 -0.124921 0
1.494746 -0.162946 0
1.501509 -0.232298 0
1.591159 -0.282560 0
1.728435 -0.243936 0
1.841212 -0.114508 0
1.898923 0.057723 0
1.884127 0.216801 0
1.800904 0.320774 0
1.674778 0.362866 0
1.535971 0.368516 0
1.413915 0.360333 0
1.320542 0.344623 0
1.248716 0.319386 0
1.204596 0.282151 0
1.155119 0.233811 0
1.091919 0.190715 0
1.013957 0.187663 0
0.930524 0.170943 0
0.894452 0.111682 0
0.899877 0.067898 0
0.922711 0.044960 0
0.950583 0.028078 0
0.975358 0.008407 0
0.982665 -0.013118 0
0.975356 -0.030518 0
0.959400 -0.038283 0
0.944789 -0.033577 0
0.938802 -0.025429 0
0.938592 -0.021107 0
0.941405 -0.019174 0
0.945643 -0.018197 0
0.950472 -0.017506 0
0.955456 -0.016832 0
0.960358 -0.016081 0
0.965052 -0.015243 0
0.969461 -0.014341 0
0.973516 -0.013380 0
0.977201 -0.012373 0
0.980555 -0.011378 0
0.983569 -0.010406 0
0.986199 -0.009416 0
0.988510 -0.008457 0
0.990627 -0.007610 0
0.992545 -0.006867 0
0.994116 -0.006111 0
0.995345 -0.005285 0
0.996493 -0.004552 0
0.997712 -0.004122 0
0.998933 -0.003933 0
0.999898 -0.003641 0
1.000601 -0.003198 0
1.001200 -0.002782 0
1.001716 -0.002408 0
1.002163 -0.002076 0
1.002550 -0.001781 0
1.002885 -0.001522 0
1.003176 -0.001295 0
1.003428 -0.001099 0
1.003645 -0.000931 0
1.003832 -0.000787 0
1.003993 -0.000665 0
1.004130 -0.000562 0
1.004247 -0.000476 0
1.004347 -0.000405 0
1.004433 -0.000348 0
1.004505 -0.000304 0
1.004566 -0.000272 0
1.004617 -0.000252 0
1.004657 -0.000246 0
1.004685 -0.000255 0
1.004697 -0.000279 0
1.004685 -0.000315 0
1.004646 -0.000336 0
1.000000 0.000048 0
1.000039 0.000133 0
1.000124 0.000126 0
1.000110 -0.000119 0
1.000124 -0.000740 0
1.000379 -0.001780 0
1.000741 -0.003240 0
1.001210 -0.005219 0
1.001865 -0.007856 0
1.002795 -0.011247 0
1.003952 -0.015561 0
1.005502 -0.021031 0
1.007395 -0.028001 0
1.009699 -0.037059 0
1.012699 -0.048899 0
1.016651 -0.064416 0
1.021046 -0.085617 0
1.030829 -0.113049 0
1.039205 -0.151567 0
1.066557 -0.201904 0
1.104825 -0.255684 0
1.163360 -0.361225 0
1.406734 -0.391156 0
1.472663 -0.290390 0
1.460819 -0.210003 0
1.455637 -0.154554 0
1.437263 -0.106385 0
1.368972 -0.098185 0
1.312573 -0.138306 0
1.205170 -0.264103 0
1.280808 -0.405720 0
1.455855 -0.390527 0
1.615546 -0.224288 0
1.728415 0.010125 0
1.783142 0.246859 0
1.768465 0.426974 0
1.688678 0.524028 0
1.562315 0.540075 0
1.410823 0.498400 0
1.257132 0.436805 0
1.136700 0.362732 0
1.021811 0.309359 0
0.976442 0.294607 0
0.975456 0.276579 0
0.971232 0.225571 0
0.981294 0.143098 0
0.972219 0.071841 0
0.957492 0.031812 0
0.953553 0.012989 0
0.958826 0.007054 0
0.965780 0.007196 0
0.965859 0.009790 0
0.957841 0.012431 0
0.943840 0.010037 0
0.931751 -0.001083 0
0.928201 -0.012955 0
0.930200 -0.019253 0
0.934979 -0.021959 0
0.940951 -0.022820 0
0.947246 -0.022742 0
0.953420 -0.022141 0
0.959306 -0.021219 0
0.964806 -0.020095 0
0.969797 -0.018810 0
0.974266 -0.017412 0
0.978297 -0.016015 0
0.981881 -0.014654 0
0.984931 -0.013265 0
0.987560 -0.011884 0
0.989967 -0.010670 0
0.992099 -0.009639 0
0.993819 -0.008578 0
0.995139 -0.007411 0
0.996342 -0.006421 0
0.997691 -0.005797 0
0.998974 -0.005402 0
0.999985 -0.004942 0
1.000688 -0.004358 0
1.001278 -0.003803 0
1.001787 -0.003303 0
1.002226 -0.002857 0
1.002603 -0.002463 0
1.002928 -0.002115 0
1.003209 -0.001809 0
1.003451 -0.001544 0
1.003660 -0.001313 0
1.003840 -0.001115 0
1.003995 -0.000945 0
1.004128 -0.000801 0
1.004242 -0.000678 0
1.004340 -0.000575 0
1.004423 -0.000489 0
1.004493 -0.000419 0
1.004551 -0.000363 0
1.004599 -0.000320 0
1.004637 -0.000289 0
1.004663 -0.000272 0
1.004678 -0.000266 0
1.004677 -0.000272 0
1.004657 -0.000286 0
1.004617 -0.000295 0
1.000000 0.000025 0
1.000014 0.000067 0
1.000068 0.000147 0
1.000041 0.000013 0
0.999835 -0.000765 0
0.999852 -0.001984 0
0.999836 -0.003483 0
0.999747 -0.005548 0
0.999761 -0.008367 0
1.000111 -0.011914 0
1.000501 -0.016410 0
1.001181 -0.022063 0
1.001404 -0.029107 0
1.001566 -0.038356 0
1.000607 -0.050590 0
1.001963 -0.065778 0
0.998250 -0.089652 0
1.002814 -0.116789 0
0.994642 -0.163962 0
1.010574 -0.229835 0
1.025106 -0.298878 0
1.085247 -0.548386 0
1.409927 -0.571154 0
1.320004 -0.283569 0
1.200846 -0.168914 0
1.105764 -0.123271 0
1.121209 -0.035163 0
1.036234 -0.000233 0
0.708425 0.000855 0
0.562352 -0.200534 0
0.665904 -0.533246 0
0.872367 -0.578674 0
1.139490 -0.387068 0
1.303355 -0.109874 0
1.399095 0.176751 0
1.444966 0.415238 0
1.468197 0.569015 0
1.444683 0.646371 0
1.366212 0.665517 0
1.270493 0.618746 0
1.154545 0.554708 0
0.998183 0.442410 0
0.914692 0.280167 0
0.910660 0.195927 0
0.910613 0.181827 0
0.895527 0.169957 0
0.869239 0.135486 0
0.848003 0.086565 0
0.834125 0.043628 0
0.827894 0.015854 0
0.828685 0.001377 0
0.836686 -0.005176 0
0.851040 -0.008497 0
0.870465 -0.012191 0
0.889469 -0.017936 0
0.903504 -0.023875 0
0.914913 -0.027882 0
0.925157 -0.029922 0
0.934685 -0.030461 0
0.943503 -0.029973 0
0.951520 -0.028890 0
0.958721 -0.027464 0
0.965155 -0.025731 0
0.970875 -0.023798 0
0.975886 -0.021877 0
0.980176 -0.019985 0
0.983796 -0.018010 0
0.986935 -0.016082 0
0.989714 -0.014450 0
0.992039 -0.012993 0
0.993804 -0.011459 0
0.995239 -0.009904 0
0.996693 -0.008631 0
0.998113 -0.007834 0
0.999386 -0.007181 0
1.000371 -0.006414 0
1.001052 -0.005644 0
1.001604 -0.004931 0
1.002070 -0.004294 0
1.002469 -0.003726 0
1.002811 -0.003222 0
1.003103 -0.002776 0
1.003355 -0.002384 0
1.003571 -0.002042 0
1.003758 -0.001744 0
1.003919 -0.001486 0
1.004058 -0.001263 0
1.004179 -0.001073 0
1.004282 -0.000910 0
1.004371 -0.000771 0
1.004446 -0.000654 0
1.004511 -0.000556 0
1.004564 -0.000474 0
1.004608 -0.000408 0
1.004642 -0.000354 0
1.004667 -0.000314 0
1.004682 -0.000285 0
1.004685 -0.000266 0
1.004675 -0.000256 0
1.004650 -0.000253 0
1.004608 -0.000252 0
1.000000 0.000020 0
0.999982 0.000047 0
0.999996 0.000091 0
1.000065 0.000107 0
0.999824 -0.000558 0
0.999566 -0.001788 0
0.999435 -0.003141 0
0.998970 -0.005151 0
0.998085 -0.008226 0
0.997937 -0.011993 0
0.997126 -0.016637 0
0.996948 -0.021939 0
0.996190 -0.028391 0
0.994764 -0.036267 0
0.991196 -0.049301 0
0.987547 -0.062064 0
0.981458 -0.086472 0
0.973206 -0.109445 0
0.959476 -0.159332 0
0.952351 -0.232372 0
0.898303 -0.330360 0
1.006633 -0.746049 0
0.686304 -0.544606 0
-0.000801 0.000000 0
0.000951 0.000000 0
0.402843 -0.079155 0
0.363548 -0.036856 0
0.330673 0.314598 0
0.147100 0.335575 0
0.319302 -0.221583 0
0.194448 -0.715736 0
0.231288 -0.864115 0
0.416180 -0.655277 0
0.670733 -0.249480 0
0.837408 0.105248 0
0.983824 0.357872 0
1.108528 0.524310 0
1.191541 0.642061 0
1.212969 0.672590 0
1.146042 0.648473 0
1.055332 0.635043 0
1.043571 0.549213 0
0.977280 0.382131 0
0.859273 0.280659 0
0.786082 0.240705 0
0.773416 0.184474 0
0.788056 0.119367 0
0.798584 0.066927 0
0.798692 0.033100 0
0.795851 0.012496 0
0.797434 -0.001594 0
0.806431 -0.012563 0
0.822333 -0.021346 0
0.842771 -0.028390 0
0.864213 -0.034120 0
0.883775 -0.038396 0
0.900990 -0.040904 0
0.916062 -0.041729 0
0.929283 -0.041163 0
0.940885 -0.039575 0
0.950988 -0.037357 0
0.959639 -0.034851 0
0.966992 -0.032246 0
0.973271 -0.029538 0
0.978680 -0.026711 0
0.983235 -0.023922 0
0.986916 -0.021410 0
0.989870 -0.019180 0
0.992386 -0.016985 0
0.994494 -0.014757 0
0.996111 -0.012836 0
0.997659 -0.011464 0
0.999121 -0.010282 0
1.000318 -0.009111 0
1.001129 -0.008052 0
1.001730 -0.007066 0
1.002208 -0.006172 0
1.002605 -0.005374 0
1.002935 -0.004666 0
1.003212 -0.004040 0
1.003445 -0.003489 0
1.003644 -0.003004 0
1.003814 -0.002580 0
1.003961 -0.002210 0
1.004088 -0.001889 0
1.004198 -0.001611 0
1.004294 -0.001372 0
1.004377 -0.001166 0
1.004449 -0.000990 0
1.004511 -0.000840 0
1.004564 -0.000712 0
1.004609 -0.000604 0
1.004645 -0.000514 0
1.004674 -0.000438 0
1.004695 -0.000376 0
1.004708 -0.000326 0
1.004712 -0.000287 0
1.004706 -0.000257 0
1.004688 -0.000234 0
1.004658 -0.000216 0
1.004615 -0.000208 0
1.000000 0.000029 0
0.999970 0.000054 0
0.999940 0.000056 0
0.999951 0.000178 0
0.999984 -0.000272 0
0.999397 -0.001602 0
0.999234 -0.002894 0
0.998364 -0.004204 0
0.998306 -0.007339 0
0.996363 -0.010961 0
0.996140 -0.015427 0
0.993245 -0.021132 0
0.993089 -0.026928 0
0.987062 -0.033368 0
0.987781 -0.043379 0
0.973486 -0.056046 0
0.973961 -0.075316 0
0.941287 -0.094811 0
0.944890 -0.143112 0
0.873848 -0.168667 0
0.837656 -0.353164 0
0.688597 -0.417701 0
0.000000 0.009199 0
-0.576794 0.149715 0
-0.483094 0.000000 0
0.000000 0.000000 0
-0.072145 0.044016 0
-0.034183 0.216214 0
0.155793 0.012225 0
0.228815 -0.247883 0
-0.033507 -0.445233 0
-0.183779 -0.800406 0
-0.337379 -0.826514 0
0.061738 -0.531103 0
0.290894 -0.136340 0
0.585191 0.144118 0
0.781675 0.361299 0
0.888485 0.541931 0
0.920996 0.711016 0
0.927112 0.776383 0
0.968745 0.657180 0
0.971527 0.520463 0
0.876943 0.464466 0
0.787491 0.387125 0
0.770870 0.267685 0
0.772871 0.167985 0
0.758979 0.110320 0
0.735432 0.075931 0
0.718399 0.046363 0
0.716527 0.017113 0
0.729549 -0.009202 0
0.752894 -0.030073 0
0.781723 -0.044835 0
0.812403 -0.054070 0
0.842189 -0.058937 0
0.869088 -0.060649 0
0.892276 -0.060166 0
0.911718 -0.058212 0
0.927955 -0.055282 0
0.941753 -0.051675 0
0.953605 -0.047641 0
0.963529 -0.043466 0
0.971518 -0.039361 0
0.977844 -0.035483 0
0.983164 -0.031838 0
0.987794 -0.028218 0
0.991407 -0.024643 0
0.993920 -0.021550 0
0.996190 -0.019071 0
0.998077 -0.016715 0
0.999631 -0.014621 0
1.000883 -0.012912 0
1.001732 -0.011287 0
1.002368 -0.009839 0
1.002826 -0.008591 0
1.003171 -0.007490 0
1.003442 -0.006515 0
1.003658 -0.005655 0
1.003833 -0.004898 0
1.003976 -0.004234 0
1.004096 -0.003652 0
1.004198 -0.003142 0
1.004285 -0.002699 0
1.004361 -0.002313 0
1.004427 -0.001978 0
1.004486 -0.001689 0
1.004538 -0.001440 0
1.004584 -0.001225 0
1.004624 -0.001041 0
1.004659 -0.000884 0
1.004689 -0.000749 0
1.004714 -0.000634 0
1.004734 -0.000537 0
1.004748 -0.000455 0
1.004756 -0.000386 0
1.004758 -0.000328 0
1.004752 -0.000280 0
1.004738 -0.000240 0
1.004714 -0.000207 0
1.004680 -0.000177 0
1.004635 -0.000162 0
1.000000 0.000036 0
0.999973 0.000090 0
0.999924 0.000103 0
0.999973 0.000056 0
0.999822 -0.000011 0
0.999601 -0.001044 0
0.998676 -0.002115 0
0.998730 -0.004230 0
0.997707 -0.006232 0
0.996806 -0.009833 0
0.994839 -0.013524 0
0.993408 -0.018894 0
0.988596 -0.022214 0
0.987034 -0.030965 0
0.978476 -0.035731 0
0.972666 -0.048249 0
0.957170 -0.054278 0
0.938863 -0.080378 0
0.914704 -0.091898 0
0.842252 -0.125143 0
0.817472 -0.145113 0
0.474763 0.012467 0
0.374935 0.064852 0
0.000000 0.000000 0
0.000000 0.000000 0
0.000000 0.000000 0
0.000000 0.000000 0
0.039680 0.082323 0
0.195085 0.072577 0
-0.142775 -0.032284 0
-0.191300 -0.303143 0
-0.562319 -0.560244 0
-0.597612 -0.900795 0
-0.396367 -0.877753 0
-0.163804 -0.418204 0
0.187058 -0.132909 0
0.455725 0.221016 0
0.607592 0.502740 0
0.738113 0.633962 0
0.881706 0.600724 0
0.910136 0.590629 0
0.804818 0.641016 0
0.751360 0.566169 0
0.768633 0.386733 0
0.757385 0.255326 0
0.704085 0.196365 0
0.650198 0.156807 0
0.623223 0.107510 0
0.627437 0.052008 0
0.654372 0.001348 0
0.693480 -0.037960 0
0.736415 -0.064734 0