# vtk DataFile Version 2.0
generated by CFD-lab course output (written by Tobias Neckel) 
ASCII

DATASET STRUCTURED_GRID
DIMENSIONS  101 21 1 
POINTS 2121 float

0.000000 0.000000 0
0.100000 0.000000 0
0.200000 0.000000 0
0.300000 0.000000 0
0.400000 0.000000 0
0.500000 0.000000 0
0.600000 0.000000 0
0.700000 0.000000 0
0.800000 0.000000 0
0.900000 0.000000 0
1.000000 0.000000 0
1.100000 0.000000 0
1.200000 0.000000 0
1.300000 0.000000 0
1.400000 0.000000 0
1.500000 0.000000 0
1.600000 0.000000 0
1.700000 0.000000 0
1.800000 0.000000 0
1.900000 0.000000 0
2.000000 0.000000 0
2.100000 0.000000 0
2.200000 0.000000 0
2.300000 0.000000 0
2.400000 0.000000 0
2.500000 0.000000 0
2.600000 0.000000 0
2.700000 0.000000 0
2.800000 0.000000 0
2.900000 0.000000 0
3.000000 0.000000 0
3.100000 0.000000 0
3.200000 0.000000 0
3.300000 0.000000 0
3.400000 0.000000 0
3.500000 0.000000 0
3.600000 0.000000 0
3.700000 0.000000 0
3.800000 0.000000 0
3.900000 0.000000 0
4.000000 0.000000 0
4.100000 0.000000 0
4.200000 0.000000 0
4.300000 0.000000 0
4.400000 0.000000 0
4.500000 0.000000 0
4.600000 0.000000 0
4.700000 0.000000 0
4.800000 0.000000 0
4.900000 0.000000 0
5.000000 0.000000 0
5.100000 0.000000 0
5.200000 0.000000 0
5.300000 0.000000 0
5.400000 0.000000 0
5.500000 0.000000 0
5.600000 0.000000 0
5.700000 0.000000 0
5.800000 0.000000 0
5.900000 0.000000 0
6.000000 0.000000 0
6.100000 0.000000 0
6.200000 0.000000 0
6.300000 0.000000 0
6.400000 0.000000 0
6.500000 0.000000 0
6.600000 0.000000 0
6.700000 0.000000 0
6.800000 0.000000 0
6.900000 0.000000 0
7.000000 0.000000 0
7.100000 0.000000 0
7.200000 0.000000 0
7.300000 0.000000 0
7.400000 0.000000 0
7.500000 0.000000 0
7.600000 0.000000 0
7.700000 0.000000 0
7.800000 0.000000 0
7.900000 0.000000 0
8.000000 0.000000 0
8.100000 0.000000 0
8.200000 0.000000 0
8.300000 0.000000 0
8.400000 0.000000 0
8.500000 0.000000 0
8.600000 0.000000 0
8.700000 0.000000 0
8.800000 0.000000 0
8.900000 0.000000 0
9.000000 0.000000 0
9.100000 0.000000 0
9.200000 0.000000 0
9.300000 0.000000 0
9.400000 0.000000 0
9.500000 0.000000 0
9.600000 0.000000 0
9.700000 0.000000 0
9.800000 0.000000 0
9.900000 0.000000 0
10.000000 0.000000 0
0.000000 0.100000 0
0.100000 0.100000 0
0.200000 0.100000 0
0.300000 0.100000 0
0.400000 0.100000 0
0.500000 0.100000 0
0.600000 0.100000 0
0.700000 0.100000 0
0.800000 0.100000 0
0.900000 0.100000 0
1.000000 0.100000 0
1.100000 0.100000 0
1.200000 0.100000 0
1.300000 0.100000 0
1.400000 0.100000 0
1.500000 0.100000 0
1.600000 0.100000 0
1.700000 0.100000 0
1.800000 0.100000 0
1.900000 0.100000 0
2.000000 0.100000 0
2.100000 0.100000 0
2.200000 0.100000 0
2.300000 0.100000 0
2.400000 0.100000 0
2.500000 0.100000 0
2.600000 0.100000 0
2.700000 0.100000 0
2.800000 0.100000 0
2.900000 0.100000 0
3.000000 0.100000 0
3.100000 0.100000 0
3.200000 0.100000 0
3.300000 0.100000 0
3.400000 0.100000 0
3.500000 0.100000 0
3.600000 0.100000 0
3.700000 0.100000 0
3.800000 0.100000 0
3.900000 0.100000 0
4.000000 0.100000 0
4.100000 0.100000 0
4.200000 0.100000 0
4.300000 0.100000 0
4.400000 0.100000 0
4.500000 0.100000 0
4.600000 0.100000 0
4.700000 0.100000 0
4.800000 0.100000 0
4.900000 0.100000 0
5.000000 0.100000 0
5.100000 0.100000 0
5.200000 0.100000 0
5.300000 0.100000 0
5.400000 0.100000 0
5.500000 0.100000 0
5.600000 0.100000 0
5.700000 0.100000 0
5.800000 0.100000 0
5.900000 0.100000 0
6.000000 0.100000 0
6.100000 0.100000 0
6.200000 0.100000 0
6.300000 0.100000 0
6.400000 0.100000 0
6.500000 0.100000 0
6.600000 0.100000 0
6.700000 0.100000 0
6.800000 0.100000 0
6.900000 0.100000 0
7.000000 0.100000 0
7.100000 0.100000 0
7.200000 0.100000 0
7.300000 0.100000 0
7.400000 0.100000 0
7.500000 0.100000 0
7.600000 0.100000 0
7.700000 0.100000 0
7.800000 0.100000 0
7.900000 0.100000 0
8.000000 0.100000 0
8.100000 0.100000 0
8.200000 0.100000 0
8.300000 0.100000 0
8.400000 0.100000 0
8.500000 0.100000 0
8.600000 0.100000 0
8.700000 0.100000 0
8.800000 0.100000 0
8.900000 0.100000 0
9.000000 0.100000 0
9.100000 0.100000 0
9.200000 0.100000 0
9.300000 0.100000 0
9.400000 0.100000 0
9.500000 0.100000 0
9.600000 0.100000 0
9.700000 0.100000 0
9.800000 0.100000 0
9.900000 0.100000 0
10.000000 0.100000 0
0.000000 0.200000 0
0.100000 0.200000 0
0.200000 0.200000 0
0.300000 0.200000 0
0.400000 0.200000 0
0.500000 0.200000 0
0.600000 0.200000 0
0.700000 0.200000 0
0.800000 0.200000 0
0.900000 0.200000 0
1.000000 0.200000 0
1.100000 0.200000 0
1.200000 0.200000 0
1.300000 0.200000 0
1.400000 0.200000 0
1.500000 0.200000 0
1.600000 0.200000 0
1.700000 0.200000 0
1.800000 0.200000 0
1.900000 0.200000 0
2.000000 0.200000 0
2.100000 0.200000 0
2.200000 0.200000 0
2.300000 0.200000 0
2.400000 0.200000 0
2.500000 0.200000 0
2.600000 0.200000 0
2.700000 0.200000 0
2.800000 0.200000 0
2.900000 0.200000 0
3.000000 0.200000 0
3.100000 0.200000 0
3.200000 0.200000 0
3.300000 0.200000 0
3.400000 0.200000 0
3.500000 0.200000 0
3.600000 0.200000 0
3.700000 0.200000 0
3.800000 0.200000 0
3.900000 0.200000 0
4.000000 0.200000 0
4.100000 0.200000 0
4.200000 0.200000 0
4.300000 0.200000 0
4.400000 0.200000 0
4.500000 0.200000 0
4.600000 0.200000 0
4.700000 0.200000 0
4.800000 0.200000 0
4.900000 0.200000 0
5.000000 0.200000 0
5.100000 0.200000 0
5.200000 0.200000 0
5.300000 0.200000 0
5.400000 0.200000 0
5.500000 0.200000 0
5.600000 0.200000 0
5.700000 0.200000 0
5.800000 0.200000 0
5.900000 0.200000 0
6.000000 0.200000 0
6.100000 0.200000 0
6.200000 0.200000 0
6.300000 0.200000 0
6.400000 0.200000 0
6.500000 0.200000 0
6.600000 0.200000 0
6.700000 0.200000 0
6.800000 0.200000 0
6.900000 0.200000 0
7.000000 0.200000 0
7.100000 0.200000 0
7.200000 0.200000 0
7.300000 0.200000 0
7.400000 0.200000 0
7.500000 0.200000 0
7.600000 0.200000 0
7.700000 0.200000 0
7.800000 0.200000 0
7.900000 0.200000 0
8.000000 0.200000 0
8.100000 0.200000 0
8.200000 0.200000 0
8.300000 0.200000 0
8.400000 0.200000 0
8.500000 0.200000 0
8.600000 0.200000 0
8.700000 0.200000 0
8.800000 0.200000 0
8.900000 0.200000 0
9.000000 0.200000 0
9.100000 0.200000 0
9.200000 0.200000 0
9.300000 0.200000 0
9.400000 0.200000 0
9.500000 0.200000 0
9.600000 0.200000 0
9.700000 0.200000 0
9.800000 0.200000 0
9.900000 0.200000 0
10.000000 0.200000 0
0.000000 0.300000 0
0.100000 0.300000 0
0.200000 0.300000 0
0.300000 0.300000 0
0.400000 0.300000 0
0.500000 0.300000 0
0.600000 0.300000 0
0.700000 0.300000 0
0.800000 0.300000 0
0.900000 0.300000 0
1.000000 0.300000 0
1.100000 0.300000 0
1.200000 0.300000 0
1.300000 0.300000 0
1.400000 0.300000 0
1.500000 0.300000 0
1.600000 0.300000 0
1.700000 0.300000 0
1.800000 0.300000 0
1.900000 0.300000 0
2.000000 0.300000 0
2.100000 0.300000 0
2.200000 0.300000 0
2.300000 0.300000 0
2.400000 0.300000 0
2.500000 0.300000 0
2.600000 0.300000 0
2.700000 0.300000 0
2.800000 0.300000 0
2.900000 0.300000 0
3.000000 0.300000 0
3.100000 0.300000 0
3.200000 0.300000 0
3.300000 0.300000 0
3.400000 0.300000 0
3.500000 0.300000 0
3.600000 0.300000 0
3.700000 0.300000 0
3.800000 0.300000 0
3.900000 0.300000 0
4.000000 0.300000 0
4.100000 0.300000 0
4.200000 0.300000 0
4.300000 0.300000 0
4.400000 0.300000 0
4.500000 0.300000 0
4.600000 0.300000 0
4.700000 0.300000 0
4.800000 0.300000 0
4.900000 0.300000 0
5.000000 0.300000 0
5.100000 0.300000 0
5.200000 0.300000 0
5.300000 0.300000 0
5.400000 0.300000 0
5.500000 0.300000 0
5.600000 0.300000 0
5.700000 0.300000 0
5.800000 0.300000 0
5.900000 0.300000 0
6.000000 0.300000 0
6.100000 0.300000 0
6.200000 0.300000 0
6.300000 0.300000 0
6.400000 0.300000 0
6.500000 0.300000 0
6.600000 0.300000 0
6.700000 0.300000 0
6.800000 0.300000 0
6.900000 0.300000 0
7.000000 0.300000 0
7.100000 0.300000 0
7.200000 0.300000 0
7.300000 0.300000 0
7.400000 0.300000 0
7.500000 0.300000 0
7.600000 0.300000 0
7.700000 0.300000 0
7.800000 0.300000 0
7.900000 0.300000 0
8.000000 0.300000 0
8.100000 0.300000 0
8.200000 0.300000 0
8.300000 0.300000 0
8.400000 0.300000 0
8.500000 0.300000 0
8.600000 0.300000 0
8.700000 0.300000 0
8.800000 0.300000 0
8.900000 0.300000 0
9.000000 0.300000 0
9.100000 0.300000 0
9.200000 0.300000 0
9.300000 0.300000 0
9.400000 0.300000 0
9.500000 0.300000 0
9.600000 0.300000 0
9.700000 0.300000 0
9.800000 0.300000 0
9.900000 0.300000 0
10.000000 0.300000 0
0.000000 0.400000 0
0.100000 0.400000 0
0.200000 0.400000 0
0.300000 0.400000 0
0.400000 0.400000 0
0.500000 0.400000 0
0.600000 0.400000 0
0.700000 0.400000 0
0.800000 0.400000 0
0.900000 0.400000 0
1.000000 0.400000 0
1.100000 0.400000 0
1.200000 0.400000 0
1.300000 0.400000 0
1.400000 0.400000 0
1.500000 0.400000 0
1.600000 0.400000 0
1.700000 0.400000 0
1.800000 0.400000 0
1.900000 0.400000 0
2.000000 0.400000 0
2.100000 0.400000 0
2.200000 0.400000 0
2.300000 0.400000 0
2.400000 0.400000 0
2.500000 0.400000 0
2.600000 0.400000 0
2.700000 0.400000 0
2.800000 0.400000 0
2.900000 0.400000 0
3.000000 0.400000 0
3.100000 0.400000 0
3.200000 0.400000 0
3.300000 0.400000 0
3.400000 0.400000 0
3.500000 0.400000 0
3.600000 0.400000 0
3.700000 0.400000 0
3.800000 0.400000 0
3.900000 0.400000 0
4.000000 0.400000 0
4.100000 0.400000 0
4.200000 0.400000 0
4.300000 0.400000 0
4.400000 0.400000 0
4.500000 0.400000 0
4.600000 0.400000 0
4.700000 0.400000 0
4.800000 0.400000 0
4.900000 0.400000 0
5.000000 0.400000 0
5.100000 0.400000 0
5.200000 0.400000 0
5.300000 0.400000 0
5.400000 0.400000 0
5.500000 0.400000 0
5.600000 0.400000 0
5.700000 0.400000 0
5.800000 0.400000 0
5.900000 0.400000 0
6.000000 0.400000 0
6.100000 0.400000 0
6.200000 0.400000 0
6.300000 0.400000 0
6.400000 0.400000 0
6.500000 0.400000 0
6.600000 0.400000 0
6.700000 0.400000 0
6.800000 0.400000 0
6.900000 0.400000 0
7.000000 0.400000 0
7.100000 0.400000 0
7.200000 0.400000 0
7.300000 0.400000 0
7.400000 0.400000 0
7.500000 0.400000 0
7.600000 0.400000 0
7.700000 0.400000 0
7.800000 0.400000 0
7.900000 0.400000 0
8.000000 0.400000 0
8.100000 0.400000 0
8.200000 0.400000 0
8.300000 0.400000 0
8.400000 0.400000 0
8.500000 0.400000 0
8.600000 0.400000 0
[...]
POINT_DATA 2121 

VECTORS velocity float
0.500000 0.000000 0
-0.000003 0.000000 0
-0.000013 0.000000 0
-0.000030 0.000000 0
-0.000053 0.000000 0
-0.000091 0.000000 0
-0.000086 0.000000 0
-0.000111 0.000000 0
-0.000142 0.000000 0
-0.000169 0.000000 0
-0.000196 0.000000 0
-0.000224 0.000000 0
-0.000256 0.000000 0
-0.000291 0.000000 0
-0.000331 0.000000 0
-0.000377 0.000000 0
-0.000430 0.000000 0
-0.000490 0.000000 0
-0.000554 0.000000 0
-0.000618 0.000000 0
-0.000671 0.000000 0
-0.000698 0.000000 0
-0.000664 0.000000 0
-0.000415 0.000000 0
-0.000096 0.000000 0
0.000220 0.000000 0
0.000660 0.000000 0
0.001231 0.000000 0
0.001829 0.000000 0
0.002411 0.000000 0
0.002956 0.000000 0
0.003390 0.000000 0
0.003570 0.000000 0
0.003261 0.000000 0
0.002237 0.000000 0
0.002996 0.000000 0
-0.001988 0.000000 0
-0.007234 0.000000 0
-0.011283 0.000000 0
-0.016734 0.000000 0
-0.018373 0.000000 0
-0.016797 0.000000 0
-0.010211 0.000000 0
-0.001704 0.000000 0
0.005813 0.000000 0
0.010668 0.000000 0
0.013127 0.000000 0
0.013646 0.000000 0
0.012429 0.000000 0
0.013031 0.000000 0
0.022186 0.000000 0
0.008889 0.000000 0
0.003708 0.000000 0
-0.003390 0.000000 0
-0.012063 0.000000 0
-0.010909 0.000000 0
-0.009331 0.000000 0
-0.010580 0.000000 0
-0.013053 0.000000 0
-0.013725 0.000000 0
-0.013309 0.000000 0
-0.011594 0.000000 0
-0.008265 0.000000 0
-0.003270 0.000000 0
0.002716 0.000000 0
0.008216 0.000000 0
0.013255 0.000000 0
0.015111 0.000000 0
0.013294 0.000000 0
0.008580 0.000000 0
0.002724 0.000000 0
-0.001145 0.000000 0
-0.001783 0.000000 0
-0.000248 0.000000 0
0.000776 0.000000 0
-0.000886 0.000000 0
-0.003958 0.000000 0
-0.005510 0.000000 0
-0.005227 0.000000 0
-0.003695 0.000000 0
-0.001429 0.000000 0
0.001172 0.000000 0
0.003634 0.000000 0
0.005381 0.000000 0
0.006255 0.000000 0
0.006476 0.000000 0
0.005982 0.000000 0
0.003492 0.000000 0
-0.001189 0.000000 0
0.018519 0.000000 0
0.011850 0.000000 0
0.001380 0.000000 0
-0.001128 0.000000 0
0.000439 0.000000 0
0.000607 0.000000 0
-0.003174 0.000000 0
-0.003571 0.000000 0
-0.000960 0.000000 0
0.001779 0.000000 0
0.003934 0.000000 0
0.004457 0.000000 0
1.000000 0.000339 0
1.000038 0.000703 0
1.000253 0.000605 0
1.000799 0.000262 0
1.001809 -0.000340 0
1.003420 -0.001147 0
1.005734 -0.001897 0
1.008833 -0.002717 0
1.012883 -0.003811 0
1.018082 -0.005133 0
1.024673 -0.006744 0
1.032973 -0.008733 0
1.043390 -0.011205 0
1.056446 -0.014285 0
1.072802 -0.018107 0
1.093271 -0.022798 0
1.118802 -0.028436 0
1.150431 -0.034972 0
1.189138 -0.042110 0
1.235545 -0.049144 0
1.289424 -0.054781 0
1.348708 -0.057287 0
1.410004 -0.054470 0
1.464279 -0.044138 0
1.502943 -0.028568 0
1.524349 -0.011751 0
1.528727 0.005498 0
1.516705 0.021886 0
1.488604 0.036529 0
1.446484 0.049930 0
1.391379 0.062090 0
1.324542 0.072396 0
1.248250 0.079649 0
1.165986 0.080719 0
1.081691 0.086714 0
0.994925 0.082731 0
0.916190 0.042271 0
0.879649 -0.019132 0
0.911449 -0.078310 0
1.014800 -0.128152 0
1.167660 -0.161838 0
1.342918 -0.159491 0
1.502042 -0.116139 0
1.604619 -0.049944 0
1.634468 0.015954 0
1.599146 0.065756 0
1.519008 0.096748 0
1.415509 0.111224 0
1.304639 0.115206 0
1.192086 0.146019 0
1.070830 0.183394 0
0.943218 0.123698 0
0.786475 0.040523 0
0.657073 -0.022283 0
0.687830 -0.084735 0
0.731598 -0.096169 0
0.781903 -0.086364 0
0.883924 -0.087862 0
1.021228 -0.105954 0
1.148272 -0.115537 0
1.261870 -0.108932 0
1.362742 -0.093838 0
1.442193 -0.067109 0
1.496805 -0.029121 0
1.520939 0.014852 0
1.509605 0.059496 0
1.460740 0.097015 0
1.380205 0.114902 0
1.285357 0.104887 0
1.201279 0.070437 0
1.152088 0.026422 0
1.147162 -0.004626 0
1.164156 -0.011066 0
1.183129 -0.001357 0
1.185966 0.005692 0
1.161731 -0.006935 0
1.151852 -0.030375 0
1.159687 -0.044234 0
1.178078 -0.045631 0
1.205251 -0.038536 0
1.236028 -0.025617 0
1.264079 -0.008414 0
1.280758 0.011124 0
1.280127 0.029407 0
1.261093 0.043808 0
1.224813 0.053752 0
1.175092 0.054911 0
1.116577 0.033347 0
1.037355 0.057902 0
0.934735 0.146738 0
0.864066 0.132447 0
0.819210 0.031263 0
0.763680 -0.009281 0
0.715994 0.003186 0
0.676560 0.006390 0
0.677191 -0.021006 0
0.720064 -0.036888 0
0.752189 -0.021447 0
0.749375 0.003675 0
0.716497 0.012206 0
0.707007 0.008387 0
1.000000 -0.000025 0
1.000620 -0.000233 0
1.001657 -0.000749 0
1.003118 -0.001544 0
1.005055 -0.002610 0
1.007453 -0.003913 0
1.010415 -0.005402 0
1.014205 -0.007140 0
1.018868 -0.009240 0
1.024571 -0.011781 0
1.031533 -0.014884 0
1.040035 -0.018710 0
1.050441 -0.023467 0
1.063233 -0.029408 0
1.079043 -0.036821 0
1.098688 -0.045997 0
1.123195 -0.057159 0
1.153813 -0.070336 0
1.191964 -0.085114 0
1.239053 -0.100288 0
1.296039 -0.113167 0
1.361376 -0.120585 0
1.434440 -0.115577 0
1.496185 -0.092946 0
1.539322 -0.060079 0
1.562481 -0.025794 0
1.567401 0.007634 0
1.556841 0.040112 0
1.531205 0.070210 0
1.490323 0.097213 0
1.436105 0.121929 0
1.369025 0.143117 0
1.290726 0.158544 0
1.204229 0.166547 0
1.108370 0.171049 0
1.031398 0.165488 0
0.972505 0.115264 0
0.834620 0.004730 0
0.775197 -0.135163 0
0.871786 -0.256222 0
1.058648 -0.328129 0
1.241914 -0.334393 0
1.414252 -0.261711 0
1.557166 -0.132436 0
1.633968 0.005464 0
1.636309 0.115451 0
1.577173 0.183628 0
1.484411 0.214360 0
1.373744 0.223415 0
1.256458 0.233801 0
1.172525 0.248860 0
1.123348 0.284348 0
1.060076 0.286139 0
1.009939 0.098638 0
0.771237 -0.074532 0
0.565009 -0.094079 0
0.519065 -0.152332 0
0.594886 -0.239330 0
0.749151 -0.264354 0
0.927941 -0.240648 0
1.074570 -0.214475 0
1.167492 -0.180329 0
1.234291 -0.134069 0
1.288057 -0.078751 0
1.327158 -0.012806 0
1.349054 0.060192 0
1.348721 0.129395 0
1.323194 0.175378 0
1.266666 0.178920 0
1.178647 0.133264 0
1.101086 0.054113 0
1.093689 -0.012073 0
1.102923 -0.035973 0
1.081534 -0.021816 0
1.031690 0.021393 0
0.984001 0.034110 0
0.996589 0.002039 0
1.030024 -0.026231 0
1.056363 -0.045568 0
1.078258 -0.057954 0
1.109983 -0.058831 0
1.153149 -0.044734 0
1.196218 -0.016052 0
1.226714 0.019662 0
1.241762 0.055311 0
1.240733 0.085999 0
1.215479 0.108234 0
1.148059 0.137735 0
1.028925 0.181840 0
0.966191 0.173287 0
0.974139 0.115523 0
0.913278 0.100385 0
0.859183 0.103214 0
0.860564 0.087119 0
0.887028 0.038802 0
0.866097 -0.043506 0
0.768178 -0.074998 0
0.672994 -0.029312 0
0.613463 0.035691 0
0.580723 0.042367 0
0.573562 0.019723 0
1.000000 -0.000271 0
1.000434 -0.000941 0
1.001262 -0.001888 0
1.002512 -0.003132 0
1.004211 -0.004670 0
1.006380 -0.006502 0
1.009092 -0.008645 0
1.012474 -0.011166 0
1.016625 -0.014173 0
1.021677 -0.017795 0
1.027803 -0.022205 0
1.035232 -0.027638 0
1.044267 -0.034401 0
1.055325 -0.042884 0
1.068990 -0.053560 0
1.086074 -0.066950 0
1.107689 -0.083561 0
1.135361 -0.103741 0
1.171135 -0.127351 0
1.217834 -0.153219 0
1.278707 -0.177105 0
1.352713 -0.195690 0
1.450743 -0.189282 0
1.527765 -0.149023 0
1.575791 -0.094867 0
1.598355 -0.039834 0
1.600632 0.011134 0
1.587631 0.058078 0
1.563203 0.103042 0
1.524318 0.145025 0
1.469040 0.183384 0
1.399161 0.217772 0
1.317295 0.244441 0
1.230842 0.263070 0
1.139842 0.259541 0
1.035488 0.218592 0
0.821739 0.239044 0
0.582547 0.178173 0
0.510020 -0.115479 0
0.572099 -0.411607 0
0.775548 -0.531970 0
1.032985 -0.515099 0
1.205748 -0.431394 0
1.353885 -0.269663 0
1.478841 -0.063192 0
1.551328 0.122548 0
1.551425 0.248642 0
1.487606 0.314650 0
1.384369 0.343157 0
1.265089 0.347235 0
1.167454 0.316502 0
1.160878 0.236145 0
1.185957 0.153929 0
1.053311 0.266553 0
0.772014 0.360193 0
0.640115 0.156002 0
0.626925 -0.116244 0
0.610736 -0.317950 0
0.622905 -0.439012 0
0.726864 -0.440958 0
0.861703 -0.348486 0
0.976531 -0.253561 0
1.056274 -0.187676 0
1.096435 -0.121991 0
1.123021 -0.046148 0
1.145185 0.037930 0
1.157029 0.122873 0
1.162169 0.196956 0
1.152480 0.249432 0
1.099193 0.236014 0
0.971877 0.111378 0
0.913752 -0.006465 0
0.932148 0.001086 0
0.947337 0.069874 0
0.942068 0.103224 0
0.934808 0.028164 0
0.867227 -0.076400 0
0.803036 -0.104010 0
0.780958 -0.093866 0
0.790732 -0.092158 0
0.821132 -0.100509 0
0.870843 -0.094650 0
0.943303 -0.062442 0
1.024740 -0.016138 0
1.091770 0.029788 0
1.129954 0.080035 0
1.161496 0.147585 0
1.179029 0.219899 0
1.154810 0.239769 0
1.086662 0.201524 0
0.977051 0.185359 0
0.904448 0.146219 0
0.900843 0.043434 0
0.913155 -0.024659 0
0.933274 0.000857 0
0.889703 0.097845 0
0.770392 0.156215 0
0.675321 0.133268 0
0.629763 0.095947 0
0.634365 0.052107 0
0.635218 0.022768 0
1.000000 -0.000449 0
1.000305 -0.001482 0
1.000931 -0.002820 0
1.001964 -0.004489 0
1.003420 -0.006473 0
1.005292 -0.008789 0
1.007623 -0.011491 0
1.010495 -0.014669 0
1.013992 -0.018438 0
1.018210 -0.022955 0
1.023269 -0.028435 0
1.029325 -0.035170 0
1.036593 -0.043558 0
1.045376 -0.054128 0
1.056150 -0.067567 0
1.069664 -0.084694 0
1.087006 -0.106445 0
1.109869 -0.133781 0
1.140595 -0.167587 0
1.184531 -0.207860 0
1.247580 -0.248046 0
1.330394 -0.292623 0
1.486472 -0.290631 0
1.585912 -0.217997 0
1.632542 -0.130673 0
1.648729 -0.050638 0
1.645313 0.018354 0
1.628677 0.077538 0
1.606868 0.133519 0
1.576905 0.191372 0
1.519332 0.247082 0
1.428836 0.294858 0
1.325807 0.326859 0
1.212947 0.343996 0
1.131285 0.366399 0
1.108047 0.483587 0
1.009199 0.568202 0
0.907438 0.316446 0
0.722904 -0.124718 0
0.562243 -0.521755 0
0.563411 -0.789019 0
0.776091 -0.764596 0
1.008071 -0.582614 0
1.126783 -0.405532 0
1.240137 -0.191982 0
1.345496 0.042864 0
1.413440 0.247347 0
1.413281 0.381413 0
1.351885 0.445929 0
1.260093 0.450713 0
1.179213 0.353068 0
1.090359 0.265843 0
0.869028 0.393704 0
0.635027 0.512579 0
0.686075 0.338661 0
0.859369 0.051007 0
0.965154 -0.122955 0
0.975363 -0.235312 0
0.885958 -0.380485 0
0.767718 -0.479448 0
0.737123 -0.464144 0
0.789927 -0.374904 0
0.871996 -0.253975 0
0.940099 -0.145500 0
0.968510 -0.061558 0
0.970944 0.026182 0
0.990127 0.112409 0
1.021069 0.179925 0
1.034104 0.241893 0
1.025577 0.313865 0
0.982104 0.239551 0
0.886434 0.027654 0
0.818158 -0.069559 0
0.818359 -0.031737 0
0.843702 0.033921 0
0.832646 0.108948 0
0.720822 0.133810 0
0.594098 0.060037 0
0.515346 -0.033266 0
0.493680 -0.098129 0
0.512714 -0.138943 0
0.560276 -0.166906 0
0.637754 -0.169949 0
0.735696 -0.128806 0
0.829328 -0.049904 0
0.894183 0.016273 0
0.915938 0.059159 0
0.903316 0.144420 0
0.883059 0.274207 0
0.871995 0.351045 0
0.894897 0.297737 0
0.937700 0.176594 0
0.902924 0.094507 0
0.805879 0.054687 0
0.694004 0.062254 0
0.617355 0.119377 0
0.607169 0.139384 0
0.633763 0.111318 0
0.726851 0.076648 0
0.824433 0.036912 0
0.837319 0.017990 0
1.000000 -0.000565 0
1.000136 -0.001858 0
1.000513 -0.003541 0
1.001353 -0.005615 0
1.002597 -0.007993 0
1.004139 -0.010699 0
1.006008 -0.013842 0
1.008280 -0.017530 0
1.011018 -0.021884 0
1.014267 -0.027067 0
1.018078 -0.033316 0
1.022528 -0.040958 0
1.027699 -0.050448 0
1.033710 -0.062439 0
1.040827 -0.077844 0
1.049670 -0.097802 0
1.061080 -0.123764 0
1.076670 -0.157328 0
1.097200 -0.202012 0
1.133951 -0.260204 0
1.187429 -0.322968 0
1.281658 -0.434583 0
1.562200 -0.444800 0
1.649233 -0.295095 0
1.658754 -0.157688 0
1.653309 -0.052609 0
1.644099 0.031182 0
1.625937 0.096520 0
1.619947 0.154811 0
1.633109 0.232558 0
1.619041 0.331449 0
1.534736 0.411294 0
1.391855 0.460327 0
1.219113 0.457588 0
1.051355 0.364437 0
0.994463 0.340675 0
1.026719 0.439650 0
0.996910 0.464464 0
0.925112 0.229712 0
0.871699 -0.252117 0
0.740910 -0.745821 0
0.661604 -0.959763 0
0.818519 -0.782089 0
0.983309 -0.501732 0
1.066418 -0.281908 0
1.126533 -0.050759 0
1.207159 0.180855 0
1.258563 0.376203 0
1.260244 0.496342 0
1.226978 0.519904 0
1.164870 0.486233 0
0.961158 0.546328 0
0.735888 0.609259 0
0.706330 0.449503 0
0.766416 0.135848 0
0.878652 -0.123079 0
0.944570 -0.232241 0
0.950446 -0.238758 0
0.896939 -0.231369 0
0.788381 -0.292125 0
0.701452 -0.370697 0
0.673076 -0.388436 0
0.690740 -0.337851 0
0.747599 -0.218507 0
0.820057 -0.076995 0
0.882387 0.016311 0
0.914107 0.072746 0
0.913025 0.152977 0
0.905785 0.244921 0
0.918316 0.288012 0
0.966175 0.250518 0
0.906355 0.157480 0
0.766552 0.069160 0
0.663810 0.044328 0
0.617947 0.088935 0
0.570575 0.151042 0
0.516146 0.162147 0
0.437976 0.101465 0
0.360445 0.006551 0
0.318399 -0.089527 0
0.328447 -0.167107 0
0.375424 -0.219691 0
0.447663 -0.237863 0
0.538119 -0.207713 0
0.611199 -0.128698 0
0.644293 -0.006575 0
0.620858 0.138451 0
0.598263 0.252778 0
0.657867 0.271090 0
0.769216 0.189686 0
0.841628 0.119654 0
0.834552 0.138192 0
0.782878 0.175255 0
0.722341 0.184262 0
0.657489 0.189381 0
0.648154 0.184680 0
0.711536 0.139808 0
0.776543 0.013586 0
0.810829 -0.094723 0
0.804417 -0.058361 0
0.803943 -0.001834 0
1.000000 -0.000574 0
1.000102 -0.001980 0
1.000120 -0.004031 0
1.000656 -0.006567 0
1.001705 -0.009254 0
1.002916 -0.012194 0
1.004276 -0.015627 0
1.005874 -0.019673 0
1.007777 -0.024419 0
1.009983 -0.030011 0
1.012460 -0.036691 0
1.015211 -0.044787 0
1.018160 -0.054736 0
1.021123 -0.067252 0
1.023955 -0.083523 0
1.027440 -0.104944 0
1.031691 -0.133442 0
1.038103 -0.169899 0
1.040929 -0.224866 0
1.066566 -0.298088 0
1.083164 -0.395753 0
1.223340 -0.667394 0
1.568893 -0.658208 0
1.475823 -0.314553 0
1.367619 -0.134751 0
1.324569 -0.035987 0
1.325235 0.045722 0
1.316473 0.101686 0
1.328199 0.126344 0
1.439756 0.192275 0
1.570750 0.345452 0
1.574056 0.522042 0
1.483611 0.642479 0
1.338718 0.684492 0
1.131735 0.591046 0
0.814737 0.508220 0
0.593936 0.565751 0
0.601517 0.418050 0
0.756062 0.000490 0
0.856632 -0.337556 0
0.842799 -0.578927 0
0.710096 -0.842208 0
0.662420 -0.904322 0
0.808322 -0.653434 0
0.934055 -0.335209 0
1.009030 -0.097880 0
1.065044 0.115315 0
1.119891 0.328326 0
1.149381 0.477512 0
1.134200 0.546085 0
1.069769 0.618885 0
0.943058 0.694822 0
0.902686 0.648529 0
0.919176 0.482048 0
0.927234 0.166337 0
0.835980 -0.127149 0
0.685276 -0.194752 0
0.597908 -0.187683 0
0.584298 -0.218422 0
0.602226 -0.283963 0
0.599130 -0.348842 0
0.597206 -0.364194 0
0.610499 -0.328500 0
0.648284 -0.274819 0
0.720398 -0.196349 0
0.797996 -0.067870 0
0.826579 0.081769 0
0.812153 0.188244 0
0.803993 0.236600 0
0.821571 0.253473 0
0.849079 0.251511 0
0.854562 0.227275 0
0.825806 0.172984 0
0.756396 0.116867 0
0.669195 0.127154 0
0.562350 0.210747 0
0.441068 0.266407 0
0.336539 0.215737 0
0.265361 0.086310 0
0.225922 -0.066132 0
0.220955 -0.195969 0
0.248877 -0.286122 0
0.297226 -0.332645 0
0.372646 -0.292343 0
0.470994 -0.156078 0
0.552074 0.006614 0
0.621028 0.105188 0
0.700698 0.107412 0
0.762198 0.103254 0
0.753780 0.167285 0
0.672102 0.232402 0
0.600554 0.235344 0
0.585913 0.206718 0
0.606574 0.180076 0
0.659489 0.136441 0
0.747548 0.065331 0
0.847863 0.010996 0
0.912341 0.012026 0
0.861856 0.048774 0
0.769523 0.043799 0
0.758789 0.019316 0
1.000000 -0.000656 0
1.000061 -0.001964 0
1.000143 -0.004089 0
0.999959 -0.007193 0
1.000612 -0.010246 0
1.001665 -0.013265 0
1.002514 -0.016795 0
1.003399 -0.021025 0
1.004444 -0.025988 0
1.005603 -0.031744 0
1.006740 -0.038539 0
1.007843 -0.046654 0
1.008789 -0.056356 0
1.008760 -0.068230 0
1.006716 -0.084157 0
1.006916 -0.105534 0
1.002651 -0.134423 0
0.998020 -0.166563 0
0.989427 -0.230472 0
0.984777 -0.302437 0
0.963287 -0.479741 0
1.054858 -0.920310 0
0.762162 -0.603460 0
-0.001855 0.000000 0
-0.003421 0.000000 0
0.509334 -0.003791 0
0.505470 0.039275 0
0.289314 0.093553 0
0.436062 0.031525 0
0.617433 -0.009996 0
1.265507 0.197148 0
1.366763 0.498430 0
1.327425 0.695662 0
1.280153 0.809461 0
1.186647 0.888415 0
0.910182 0.878472 0
0.726932 0.652868 0
0.689233 0.302335 0
0.602809 -0.025405 0
0.531821 -0.338857 0
0.556454 -0.599288 0
0.606154 -0.779387 0
0.583093 -0.880318 0
0.634228 -0.773369 0
0.776426 -0.482618 0
0.893331 -0.181751 0
0.932759 0.069991 0
0.944089 0.291864 0
0.954982 0.482031 0
0.975131 0.599512 0
0.965863 0.677372 0
0.948107 0.713409 0
0.981541 0.633138 0
1.100085 0.424953 0
1.104275 0.219042 0
0.848777 0.118875 0
0.646177 0.005829 0
0.567157 -0.137781 0
0.540390 -0.235690 0
0.530178 -0.306960 0
0.525081 -0.365679 0
0.527532 -0.399807 0
0.556470 -0.388932 0
0.597450 -0.328409 0
0.627981 -0.226709 0
0.651050 -0.089873 0
0.685064 0.058587 0
0.730668 0.175562 0
0.765559 0.235502 0
0.783998 0.242923 0
0.794263 0.217525 0
0.815425 0.180751 0
0.838311 0.167325 0
0.815784 0.200938 0
0.712579 0.282979 0
0.557239 0.379168 0
0.444856 0.387957 0
0.403178 0.277171 0
0.390500 0.117167 0
0.366533 -0.045122 0
0.320195 -0.190062 0
0.285328 -0.295963 0
0.265643 -0.361632 0
0.265414 -0.381481 0
0.313622 -0.308126 0
0.408407 -0.156608 0
0.504842 -0.010172 0
0.542979 0.111608 0
0.499821 0.218008 0
0.445772 0.279783 0
0.448812 0.272881 0
0.495927 0.224382 0
0.559423 0.169236 0
0.636051 0.110688 0
0.722979 0.048408 0
0.792367 -0.003694 0
0.828106 -0.024984 0
0.845675 -0.000405 0
0.869625 0.048096 0
0.902544 0.044708 0
0.909327 0.019194 0
1.000000 -0.000622 0
0.999912 -0.002108 0
1.000000 -0.003922 0
0.999897 -0.007030 0
0.999830 -0.010954 0
1.000057 -0.014089 0
1.000596 -0.017354 0
1.000755 -0.021597 0
1.001332 -0.026618 0
1.001143 -0.032301 0
1.002278 -0.038926 0
1.000066 -0.046830 0
1.001479 -0.055648 0
0.996611 -0.065174 0
0.996939 -0.081674 0
0.985309 -0.100875 0
0.984974 -0.124543 0
0.959617 -0.156671 0
0.959629 -0.211619 0
0.890133 -0.271945 0
0.884225 -0.465831 0
0.620435 -0.560088 0
0.000000 0.001818 0
-0.639504 0.242816 0
-0.544852 0.000000 0
0.000000 0.000000 0
-0.010202 0.259329 0
0.031214 0.171091 0
-0.261507 -0.201777 0
-0.041418 -0.637172 0
0.654627 -0.403879 0
0.947148 0.460121 0
1.044210 0.729087 0
1.047991 0.825268 0
0.982356 0.961015 0
0.915948 0.967932 0
0.827566 0.786698 0
0.657131 0.542171 0
0.558992 0.157900 0
0.548016 -0.291203 0
0.521956 -0.653263 0
0.519508 -0.868850 0
0.539851 -0.932398 0
0.566977 -0.846770 0
0.656378 -0.594314 0
0.768957 -0.254214 0
0.850601 0.064554 0
0.874692 0.306099 0
0.940700 0.446468 0
1.006797 0.535202 0
0.963361 0.645906 0
0.986488 0.679142 0
1.096952 0.496548 0
1.041713 0.359312 0
0.811572 0.417643 0
0.659404 0.330945 0
0.648303 0.086867 0
0.633483 -0.081898 0
0.588503 -0.181445 0
0.541965 -0.268656 0
0.509882 -0.346198 0
0.491636 -0.395585 0
0.486305 -0.398421 0
0.498582 -0.346333 0
0.526376 -0.249951 0
0.568787 -0.124955 0
0.627054 0.002149 0
0.696331 0.107748 0
0.760395 0.183268 0
0.799007 0.224767 0
0.813857 0.220082 0
0.809284 0.183224 0
0.798755 0.172623 0
0.766116 0.242598 0
0.669027 0.385698 0
0.568112 0.478469 0
0.546552 0.420467 0
0.575978 0.270092 0
0.643478 0.122954 0
0.740391 0.004173 0
0.735725 -0.114765 0
0.608581 -0.231570 0
0.465762 -0.312731 0
0.355063 -0.340323 0
0.268115 -0.299070 0
0.227394 -0.184606 0
0.224746 -0.029384 0
0.234162 0.112433 0
0.269526 0.200462 0
0.348350 0.218295 0
0.455877 0.182248 0
0.565654 0.124734 0
0.669395 0.066595 0
0.761477 0.016521 0
0.833158 -0.019873 0
0.878225 -0.039794 0
0.902408 -0.042312 0
0.920538 -0.029493 0
0.955292 -0.008094 0
1.006329 0.004098 0
1.019791 0.006365 0
1.000000 -0.000555 0
0.999985 -0.001948 0
0.999722 -0.004067 0
1.000005 -0.007017 0
0.999460 -0.010399 0
0.999068 -0.014024 0
0.998892 -0.017486 0
0.999293 -0.021754 0
0.998508 -0.026370 0
0.998232 -0.032684 0
0.996941 -0.037456 0
0.996998 -0.045850 0
0.992599 -0.052895 0
0.989661 -0.063684 0
0.984696 -0.072850 0
0.977236 -0.093565 0
0.961930 -0.108726 0
0.944967 -0.141213 0
0.913819 -0.160984 0
0.856767 -0.227029 0
0.784516 -0.210038 0
0.477602 -0.119776 0
0.338724 -0.066718 0
0.000000 0.000000 0
0.000000 0.000000 0
0.000000 0.000000 0
0.000000 0.000000 0
0.257679 0.343206 0
0.177535 0.104154 0
0.151726 -0.926131 0
0.001686 -0.791420 0
0.413625 0.108845 0
0.730951 0.594818 0
0.790537 0.871313 0
0.767792 1.020456 0
0.756004 1.033261 0
0.638602 0.911682 0
0.589967 0.570906 0
0.690122 0.083707 0
0.778582 -0.301823 0
0.791480 -0.570783 0
0.709069 -0.797284 0
0.616794 -0.927790 0
0.594304 -0.889897 0
0.637273 -0.684600 0
0.722450 -0.375976 0
0.841758 -0.035747 0
0.972181 0.201763 0
1.025315 0.349923 0
0.972216 0.576849 0
0.964922 0.697680 0
1.060628 0.579816 0
1.013983 0.577911 0
0.745259 0.710331 0
0.660156 0.601348 0
0.766193 0.282142 0
0.738897 0.031749 0
0.617456 -0.077984 0
0.522687 -0.144175 0
0.477254 -0.228342 0
0.460284 -0.315352 0
0.459192 -0.376233 0