# vtk DataFile Version 2.0
generated by CFD-lab course output (written by Tobias Neckel) 
ASCII

DATASET STRUCTURED_GRID
DIMENSIONS  101 21 1 
POINTS 2121 float

0.000000 0.000000 0
0.100000 0.000000 0
0.200000 0.000000 0
0.300000 0.000000 0
0.400000 0.000000 0
0.500000 0.000000 0
0.600000 0.000000 0
0.700000 0.000000 0
0.800000 0.000000 0
0.900000 0.000000 0
1.000000 0.000000 0
1.100000 0.000000 0
1.200000 0.000000 0
1.300000 0.000000 0
1.400000 0.000000 0
1.500000 0.000000 0
1.600000 0.000000 0
1.700000 0.000000 0
1.800000 0.000000 0
1.900000 0.000000 0
2.000000 0.000000 0
2.100000 0.000000 0
2.200000 0.000000 0
2.300000 0.000000 0
2.400000 0.000000 0
2.500000 0.000000 0
2.600000 0.000000 0
2.700000 0.000000 0
2.800000 0.000000 0
2.900000 0.000000 0
3.000000 0.000000 0
3.100000 0.000000 0
3.200000 0.000000 0
3.300000 0.000000 0
3.400000 0.000000 0
3.500000 0.000000 0
3.600000 0.000000 0
3.700000 0.000000 0
3.800000 0.000000 0
3.900000 0.000000 0
4.000000 0.000000 0
4.100000 0.000000 0
4.200000 0.000000 0
4.300000 0.000000 0
4.400000 0.000000 0
4.500000 0.000000 0
4.600000 0.000000 0
4.700000 0.000000 0
4.800000 0.000000 0
4.900000 0.000000 0
5.000000 0.000000 0
5.100000 0.000000 0
5.200000 0.000000 0
5.300000 0.000000 0
5.400000 0.000000 0
5.500000 0.000000 0
5.600000 0.000000 0
5.700000 0.000000 0
5.800000 0.000000 0
5.900000 0.000000 0
6.000000 0.000000 0
6.100000 0.000000 0
6.200000 0.000000 0
6.300000 0.000000 0
6.400000 0.000000 0
6.500000 0.000000 0
6.600000 0.000000 0
6.700000 0.000000 0
6.800000 0.000000 0
6.900000 0.000000 0
7.000000 0.000000 0
7.100000 0.000000 0
7.200000 0.000000 0
7.300000 0.000000 0
7.400000 0.000000 0
7.500000 0.000000 0
7.600000 0.000000 0
7.700000 0.000000 0
7.800000 0.000000 0
7.900000 0.000000 0
8.000000 0.000000 0
8.100000 0.000000 0
8.200000 0.000000 0
8.300000 0.000000 0
8.400000 0.000000 0
8.500000 0.000000 0
8.600000 0.000000 0
8.700000 0.000000 0
8.800000 0.000000 0
8.900000 0.000000 0
9.000000 0.000000 0
9.100000 0.000000 0
9.200000 0.000000 0
9.300000 0.000000 0
9.400000 0.000000 0
9.500000 0.000000 0
9.600000 0.000000 0
9.700000 0.000000 0
9.800000 0.000000 0
9.900000 0.000000 0
10.000000 0.000000 0
0.000000 0.100000 0
0.100000 0.100000 0
0.200000 0.100000 0
0.300000 0.100000 0
0.400000 0.100000 0
0.500000 0.100000 0
0.600000 0.100000 0
0.700000 0.100000 0
0.800000 0.100000 0
0.900000 0.100000 0
1.000000 0.100000 0
1.100000 0.100000 0
1.200000 0.100000 0
1.300000 0.100000 0
1.400000 0.100000 0
1.500000 0.100000 0
1.600000 0.100000 0
1.700000 0.100000 0
1.800000 0.100000 0
1.900000 0.100000 0
2.000000 0.100000 0
2.100000 0.100000 0
2.200000 0.100000 0
2.300000 0.100000 0
2.400000 0.100000 0
2.500000 0.100000 0
2.600000 0.100000 0
2.700000 0.100000 0
2.800000 0.100000 0
2.900000 0.100000 0
3.000000 0.100000 0
3.100000 0.100000 0
3.200000 0.100000 0
3.300000 0.100000 0
3.400000 0.100000 0
3.500000 0.100000 0
3.600000 0.100000 0
3.700000 0.100000 0
3.800000 0.100000 0
3.900000 0.100000 0
4.000000 0.100000 0
4.100000 0.100000 0
4.200000 0.100000 0
4.300000 0.100000 0
4.400000 0.100000 0
4.500000 0.100000 0
4.600000 0.100000 0
4.700000 0.100000 0
4.800000 0.100000 0
4.900000 0.100000 0
5.000000 0.100000 0
5.100000 0.100000 0
5.200000 0.100000 0
5.300000 0.100000 0
5.400000 0.100000 0
5.500000 0.100000 0
5.600000 0.100000 0
5.700000 0.100000 0
5.800000 0.100000 0
5.900000 0.100000 0
6.000000 0.100000 0
6.100000 0.100000 0
6.200000 0.100000 0
6.300000 0.100000 0
6.400000 0.100000 0
6.500000 0.100000 0
6.600000 0.100000 0
6.700000 0.100000 0
6.800000 0.100000 0
6.900000 0.100000 0
7.000000 0.100000 0
7.100000 0.100000 0
7.200000 0.100000 0
7.300000 0.100000 0
7.400000 0.100000 0
7.500000 0.100000 0
7.600000 0.100000 0
7.700000 0.100000 0
7.800000 0.100000 0
7.900000 0.100000 0
8.000000 0.100000 0
8.100000 0.100000 0
8.200000 0.100000 0
8.300000 0.100000 0
8.400000 0.100000 0
8.500000 0.100000 0
8.600000 0.100000 0
8.700000 0.100000 0
8.800000 0.100000 0
8.900000 0.100000 0
9.000000 0.100000 0
9.100000 0.100000 0
9.200000 0.100000 0
9.300000 0.100000 0
9.400000 0.100000 0
9.500000 0.100000 0
9.600000 0.100000 0
9.700000 0.100000 0
9.800000 0.100000 0
9.900000 0.100000 0
10.000000 0.100000 0
0.000000 0.200000 0
0.100000 0.200000 0
0.200000 0.200000 0
0.300000 0.200000 0
0.400000 0.200000 0
0.500000 0.200000 0
0.600000 0.200000 0
0.700000 0.200000 0
0.800000 0.200000 0
0.900000 0.200000 0
1.000000 0.200000 0
1.100000 0.200000 0
1.200000 0.200000 0
1.300000 0.200000 0
1.400000 0.200000 0
1.500000 0.200000 0
1.600000 0.200000 0
1.700000 0.200000 0
1.800000 0.200000 0
1.900000 0.200000 0
2.000000 0.200000 0
2.100000 0.200000 0
2.200000 0.200000 0
2.300000 0.200000 0
2.400000 0.200000 0
2.500000 0.200000 0
2.600000 0.200000 0
2.700000 0.200000 0
2.800000 0.200000 0
2.900000 0.200000 0
3.000000 0.200000 0
3.100000 0.200000 0
3.200000 0.200000 0
3.300000 0.200000 0
3.400000 0.200000 0
3.500000 0.200000 0
3.600000 0.200000 0
3.700000 0.200000 0
3.800000 0.200000 0
3.900000 0.200000 0
4.000000 0.200000 0
4.100000 0.200000 0
4.200000 0.200000 0
4.300000 0.200000 0
4.400000 0.200000 0
4.500000 0.200000 0
4.600000 0.200000 0
4.700000 0.200000 0
4.800000 0.200000 0
4.900000 0.200000 0
5.000000 0.200000 0
5.100000 0.200000 0
5.200000 0.200000 0
5.300000 0.200000 0
5.400000 0.200000 0
5.500000 0.200000 0
5.600000 0.200000 0
5.700000 0.200000 0
5.800000 0.200000 0
5.900000 0.200000 0
6.000000 0.200000 0
6.100000 0.200000 0
6.200000 0.200000 0
6.300000 0.200000 0
6.400000 0.200000 0
6.500000 0.200000 0
6.600000 0.200000 0
6.700000 0.200000 0
6.800000 0.200000 0
6.900000 0.200000 0
7.000000 0.200000 0
7.100000 0.200000 0
7.200000 0.200000 0
7.300000 0.200000 0
7.400000 0.200000 0
7.500000 0.200000 0
7.600000 0.200000 0
7.700000 0.200000 0
7.800000 0.200000 0
7.900000 0.200000 0
8.000000 0.200000 0
8.100000 0.200000 0
8.200000 0.200000 0
8.300000 0.200000 0
8.400000 0.200000 0
8.500000 0.200000 0
8.600000 0.200000 0
8.700000 0.200000 0
8.800000 0.200000 0
8.900000 0.200000 0
9.000000 0.200000 0
9.100000 0.200000 0
9.200000 0.200000 0
9.300000 0.200000 0
9.400000 0.200000 0
9.500000 0.200000 0
9.600000 0.200000 0
9.700000 0.200000 0
9.800000 0.200000 0
9.900000 0.200000 0
10.000000 0.200000 0
0.000000 0.300000 0
0.100000 0.300000 0
0.200000 0.300000 0
0.300000 0.300000 0
0.400000 0.300000 0
0.500000 0.300000 0
0.600000 0.300000 0
0.700000 0.300000 0
0.800000 0.300000 0
0.900000 0.300000 0
1.000000 0.300000 0
1.100000 0.300000 0
1.200000 0.300000 0
1.300000 0.300000 0
1.400000 0.300000 0
1.500000 0.300000 0
1.600000 0.300000 0
1.700000 0.300000 0
1.800000 0.300000 0
1.900000 0.300000 0
2.000000 0.300000 0
2.100000 0.300000 0
2.200000 0.300000 0
2.300000 0.300000 0
2.400000 0.300000 0
2.500000 0.300000 0
2.600000 0.300000 0
2.700000 0.300000 0
2.800000 0.300000 0
2.900000 0.300000 0
3.000000 0.300000 0
3.100000 0.300000 0
3.200000 0.300000 0
3.300000 0.300000 0
3.400000 0.300000 0
3.500000 0.300000 0
3.600000 0.300000 0
3.700000 0.300000 0
3.800000 0.300000 0
3.900000 0.300000 0
4.000000 0.300000 0
4.100000 0.300000 0
4.200000 0.300000 0
4.300000 0.300000 0
4.400000 0.300000 0
4.500000 0.300000 0
4.600000 0.300000 0
4.700000 0.300000 0
4.800000 0.300000 0
4.900000 0.300000 0
5.000000 0.300000 0
5.100000 0.300000 0
5.200000 0.300000 0
5.300000 0.300000 0
5.400000 0.300000 0
5.500000 0.300000 0
5.600000 0.300000 0
5.700000 0.300000 0
5.800000 0.300000 0
5.900000 0.300000 0
6.000000 0.300000 0
6.100000 0.300000 0
6.200000 0.300000 0
6.300000 0.300000 0
6.400000 0.300000 0
6.500000 0.300000 0
6.600000 0.300000 0
6.700000 0.300000 0
6.800000 0.300000 0
6.900000 0.300000 0
7.000000 0.300000 0
7.100000 0.300000 0
7.200000 0.300000 0
7.300000 0.300000 0
7.400000 0.300000 0
7.500000 0.300000 0
7.600000 0.300000 0
7.700000 0.300000 0
7.800000 0.300000 0
7.900000 0.300000 0
8.000000 0.300000 0
8.100000 0.300000 0
8.200000 0.300000 0
8.300000 0.300000 0
8.400000 0.300000 0
8.500000 0.300000 0
8.600000 0.300000 0
8.700000 0.300000 0
8.800000 0.300000 0
8.900000 0.300000 0
9.000000 0.300000 0
9.100000 0.300000 0
9.200000 0.300000 0
9.300000 0.300000 0
9.400000 0.300000 0
9.500000 0.300000 0
9.600000 0.300000 0
9.700000 0.300000 0
9.800000 0.300000 0
9.900000 0.300000 0
10.000000 0.300000 0
0.000000 0.400000 0
0.100000 0.400000 0
0.200000 0.400000 0
0.300000 0.400000 0
0.400000 0.400000 0
0.500000 0.400000 0
0.600000 0.400000 0
0.700000 0.400000 0
0.800000 0.400000 0
0.900000 0.400000 0
1.000000 0.400000 0
1.100000 0.400000 0
1.200000 0.400000 0
1.300000 0.400000 0
1.400000 0.400000 0
1.500000 0.400000 0
1.600000 0.400000 0
1.700000 0.400000 0
1.800000 0.400000 0
1.900000 0.400000 0
2.000000 0.400000 0
2.100000 0.400000 0
2.200000 0.400000 0
2.300000 0.400000 0
2.400000 0.400000 0
2.500000 0.400000 0
2.600000 0.400000 0
2.700000 0.400000 0
2.800000 0.400000 0
2.900000 0.400000 0
3.000000 0.400000 0
3.100000 0.400000 0
3.200000 0.400000 0
3.300000 0.400000 0
3.400000 0.400000 0
3.500000 0.400000 0
3.600000 0.400000 0
3.700000 0.400000 0
3.800000 0.400000 0
3.900000 0.400000 0
4.000000 0.400000 0
4.100000 0.400000 0
4.200000 0.400000 0
4.300000 0.400000 0
4.400000 0.400000 0
4.500000 0.400000 0
4.600000 0.400000 0
4.700000 0.400000 0
4.800000 0.400000 0
4.900000 0.400000 0
5.000000 0.400000 0
5.100000 0.400000 0
5.200000 0.400000 0
5.300000 0.400000 0
5.400000 0.400000 0
5.500000 0.400000 0
5.600000 0.400000 0
5.700000 0.400000 0
5.800000 0.400000 0
5.900000 0.400000 0
6.000000 0.400000 0
6.100000 0.400000 0
6.200000 0.400000 0
6.300000 0.400000 0
6.400000 0.400000 0
6.500000 0.400000 0
6.600000 0.400000 0
6.700000 0.400000 0
6.800000 0.400000 0
6.900000 0.400000 0
7.000000 0.400000 0
7.100000 0.400000 0
7.200000 0.400000 0
7.300000 0.400000 0
7.400000 0.400000 0
7.500000 0.400000 0
7.600000 0.400000 0
7.700000 0.400000 0
7.800000 0.400000 0
7.900000 0.400000 0
8.000000 0.400000 0
8.100000 0.400000 0
8.200000 0.400000 0
8.300000 0.400000 0
8.400000 0.400000 0
8.500000 0.400000 0
8.600000 0.400000 0
[...]
POINT_DATA 2121 

VECTORS velocity float
0.500000 0.000000 0
-0.000002 0.000000 0
-0.000003 0.000000 0
-0.000012 0.000000 0
-0.000033 0.000000 0
-0.000040 0.000000 0
-0.000066 0.000000 0
-0.000119 0.000000 0
-0.000202 0.000000 0
-0.000166 0.000000 0
-0.000228 0.000000 0
-0.000279 0.000000 0
-0.000337 0.000000 0
-0.000402 0.000000 0
-0.000475 0.000000 0
-0.000555 0.000000 0
-0.000642 0.000000 0
-0.000739 0.000000 0
-0.000847 0.000000 0
-0.000962 0.000000 0
-0.001082 0.000000 0
-0.001191 0.000000 0
-0.001252 0.000000 0
-0.001209 0.000000 0
-0.001090 0.000000 0
-0.000852 0.000000 0
-0.000404 0.000000 0
0.000258 0.000000 0
0.001137 0.000000 0
0.002039 0.000000 0
0.002858 0.000000 0
0.003594 0.000000 0
0.004247 0.000000 0
0.004756 0.000000 0
0.005033 0.000000 0
0.004768 0.000000 0
0.003944 0.000000 0
0.008193 0.000000 0
0.005163 0.000000 0
0.002685 0.000000 0
-0.007045 0.000000 0
-0.013238 0.000000 0
-0.015507 0.000000 0
-0.015300 0.000000 0
-0.018097 0.000000 0
-0.017181 0.000000 0
-0.013421 0.000000 0
-0.006883 0.000000 0
0.000392 0.000000 0
0.006950 0.000000 0
0.011425 0.000000 0
0.013688 0.000000 0
0.014065 0.000000 0
0.012254 0.000000 0
0.017407 0.000000 0
0.030637 0.000000 0
0.021518 0.000000 0
0.002408 0.000000 0
-0.003994 0.000000 0
-0.000684 0.000000 0
0.005761 0.000000 0
0.007269 0.000000 0
0.003351 0.000000 0
0.000663 0.000000 0
-0.000141 0.000000 0
-0.000733 0.000000 0
-0.001727 0.000000 0
-0.003145 0.000000 0
-0.005061 0.000000 0
-0.007007 0.000000 0
-0.008924 0.000000 0
-0.010585 0.000000 0
-0.011794 0.000000 0
-0.012346 0.000000 0
-0.011942 0.000000 0
-0.011365 0.000000 0
-0.015157 0.000000 0
-0.016758 0.000000 0
-0.018001 0.000000 0
-0.018165 0.000000 0
-0.016832 0.000000 0
-0.014154 0.000000 0
-0.010694 0.000000 0
-0.006654 0.000000 0
-0.002232 0.000000 0
0.002145 0.000000 0
0.006407 0.000000 0
0.011099 0.000000 0
0.016050 0.000000 0
0.023032 0.000000 0
0.032211 0.000000 0
0.038625 0.000000 0
0.017933 0.000000 0
0.001251 0.000000 0
-0.003762 0.000000 0
-0.003947 0.000000 0
-0.002852 0.000000 0
-0.001783 0.000000 0
-0.001002 0.000000 0
0.000007 0.000000 0
0.000494 0.000000 0
1.000000 0.000362 0
0.999888 0.000895 0
0.999750 0.001081 0
0.999711 0.000964 0
0.999895 0.000682 0
1.000405 0.000344 0
1.001362 -0.000180 0
1.002940 -0.001164 0
1.005354 -0.002354 0
1.008739 -0.003353 0
1.013259 -0.004549 0
1.019226 -0.006233 0
1.027021 -0.008381 0
1.037125 -0.011103 0
1.050140 -0.014519 0
1.066814 -0.018757 0
1.088049 -0.023922 0
1.114867 -0.030025 0
1.148303 -0.036883 0
1.189157 -0.043974 0
1.237591 -0.050298 0
1.292406 -0.054400 0
1.350837 -0.054413 0
1.406555 -0.049602 0
1.454497 -0.041417 0
1.491514 -0.030927 0
1.517220 -0.018876 0
1.531159 -0.005673 0
1.532226 0.009145 0
1.518735 0.024170 0
1.489514 0.038040 0
1.446580 0.050717 0
1.391499 0.061860 0
1.326010 0.071030 0
1.252702 0.077164 0
1.174660 0.076602 0
1.095323 0.083083 0
1.013752 0.103517 0
0.921519 0.100058 0
0.825229 0.060716 0
0.756378 -0.010494 0
0.771587 -0.085014 0
0.850289 -0.119451 0
0.965697 -0.138483 0
1.109881 -0.156889 0
1.272655 -0.155864 0
1.425038 -0.128832 0
1.547812 -0.080943 0
1.622355 -0.023185 0
1.640463 0.032464 0
1.605077 0.076065 0
1.528218 0.104367 0
1.426596 0.113133 0
1.314012 0.110453 0
1.188251 0.173011 0
1.027235 0.271976 0
0.864546 0.220926 0
0.746313 0.060214 0
0.675802 -0.027288 0
0.648067 -0.012870 0
0.556420 0.041928 0
0.437267 0.060170 0
0.376976 0.029716 0
0.375813 -0.003304 0
0.386246 -0.017189 0
0.396553 -0.021606 0
0.409342 -0.024608 0
0.428115 -0.028638 0
0.453086 -0.036814 0
0.488183 -0.046207 0
0.534899 -0.056422 0
0.595281 -0.067199 0
0.668011 -0.075910 0
0.751230 -0.081559 0
0.844467 -0.081357 0
0.939884 -0.082987 0
1.032110 -0.096444 0
1.132660 -0.112652 0
1.246592 -0.122265 0
1.365662 -0.123848 0
1.483594 -0.115635 0
1.590394 -0.098248 0
1.676393 -0.074142 0
1.737703 -0.045614 0
1.771317 -0.014142 0
1.775245 0.018222 0
1.747045 0.051029 0
1.684988 0.085158 0
1.593545 0.121473 0
1.471330 0.169087 0
1.316536 0.226736 0
1.148584 0.248924 0
1.014366 0.154807 0
0.946954 0.026524 0
0.925967 -0.023470 0
0.925896 -0.030735 0
0.930688 -0.025743 0
0.933302 -0.020560 0
0.930351 -0.017424 0
0.922542 -0.008157 0
0.917048 0.000502 0
1.000000 0.000118 0
1.000407 0.000259 0
1.001094 0.000181 0
1.002010 -0.000142 0
1.003139 -0.000693 0
1.004601 -0.001466 0
1.006532 -0.002535 0
1.008987 -0.003994 0
1.011899 -0.005800 0
1.015620 -0.007906 0
1.020542 -0.010490 0
1.026790 -0.013765 0
1.034685 -0.017902 0
1.044641 -0.023122 0
1.057211 -0.029693 0
1.073123 -0.037913 0
1.093319 -0.048057 0
1.118991 -0.060258 0
1.151538 -0.074294 0
1.192387 -0.089292 0
1.242714 -0.103254 0
1.301763 -0.113251 0
1.369066 -0.114153 0
1.432764 -0.103664 0
1.483029 -0.084962 0
1.519949 -0.062725 0
1.546150 -0.039646 0
1.562261 -0.015007 0
1.567221 0.012424 0
1.558775 0.042714 0
1.533507 0.072158 0
1.491988 0.098019 0
1.437968 0.120574 0
1.372736 0.138801 0
1.298535 0.151355 0
1.217517 0.157385 0
1.129289 0.160913 0
1.042443 0.173808 0
0.981978 0.188526 0
1.024510 0.165144 0
0.891054 0.053643 0
0.679338 -0.093910 0
0.615187 -0.194111 0
0.635340 -0.259594 0
0.749854 -0.306961 0
0.953295 -0.315161 0
1.161805 -0.275163 0
1.308951 -0.197324 0
1.415082 -0.092659 0
1.492163 0.017269 0
1.526343 0.112235 0
1.515787 0.178470 0
1.461551 0.214194 0
1.368533 0.238332 0
1.251627 0.286764 0
1.184733 0.323692 0
1.163827 0.280909 0
1.087225 0.188731 0
0.957711 0.098232 0
0.775637 0.119369 0
0.575142 0.210787 0
0.439146 0.179431 0
0.407818 0.061442 0
0.429033 -0.009281 0
0.420471 -0.020751 0
0.400078 -0.023106 0
0.387733 -0.031572 0
0.387172 -0.043754 0
0.395300 -0.060076 0
0.413195 -0.081820 0
0.445820 -0.107105 0
0.491074 -0.133118 0
0.546150 -0.155953 0
0.615756 -0.176459 0
0.702142 -0.188657 0
0.807540 -0.187645 0
0.922876 -0.192778 0
1.030852 -0.214483 0
1.133868 -0.233001 0
1.238061 -0.237001 0
1.342740 -0.224730 0
1.438024 -0.192796 0
1.518919 -0.147306 0
1.579808 -0.094920 0
1.616497 -0.037538 0
1.627759 0.024276 0
1.613359 0.090261 0
1.575000 0.153505 0
1.515647 0.213664 0
1.437285 0.277014 0
1.357122 0.322751 0
1.302290 0.302175 0
1.275105 0.201636 0
1.215445 0.088404 0
1.161490 0.021064 0
1.126028 -0.004715 0
1.104092 -0.007401 0
1.088489 0.000342 0
1.069399 0.010766 0
1.045700 0.013309 0
1.036720 0.010505 0
1.000000 -0.000042 0
1.000275 -0.000194 0
1.000785 -0.000521 0
1.001512 -0.001081 0
1.002469 -0.001910 0
1.003721 -0.003050 0
1.005353 -0.004567 0
1.007433 -0.006531 0
1.010029 -0.008986 0
1.013329 -0.011997 0
1.017556 -0.015720 0
1.022891 -0.020377 0
1.029590 -0.026233 0
1.037998 -0.033630 0
1.048601 -0.043002 0
1.062079 -0.054866 0
1.079400 -0.069790 0
1.101976 -0.088245 0
1.131760 -0.110280 0
1.171186 -0.135151 0
1.223568 -0.159675 0
1.288210 -0.180752 0
1.376698 -0.185414 0
1.453124 -0.163565 0
1.504675 -0.128602 0
1.539778 -0.094048 0
1.565128 -0.061187 0
1.583081 -0.026742 0
1.591852 0.012633 0
1.587233 0.057886 0
1.564974 0.104830 0
1.522419 0.146260 0
1.465721 0.181115 0
1.399516 0.210466 0
1.327513 0.232386 0
1.250829 0.245850 0
1.164790 0.258159 0
1.071864 0.250831 0
0.996407 0.117993 0
0.815512 0.151640 0
0.502285 0.334679 0
0.293271 0.190853 0
0.235848 -0.075454 0
0.168696 -0.273152 0
0.192101 -0.474846 0
0.373410 -0.567818 0
0.656202 -0.484491 0
0.903235 -0.334224 0
1.081135 -0.206400 0
1.189908 -0.078801 0
1.270019 0.052437 0
1.333266 0.169155 0
1.355708 0.260383 0
1.332953 0.320372 0
1.283655 0.356806 0
1.248728 0.359770 0
1.215659 0.318429 0
1.158035 0.266325 0
1.070747 0.284296 0
0.922093 0.369694 0
0.816017 0.378414 0
0.793521 0.227490 0
0.809851 0.039825 0
0.684166 -0.015961 0
0.557071 0.011762 0
0.489247 0.011129 0
0.457599 -0.011705 0
0.439022 -0.036208 0
0.430205 -0.062840 0
0.434967 -0.096729 0
0.458776 -0.134303 0
0.493254 -0.167531 0
0.528892 -0.200593 0
0.564071 -0.237552 0
0.604337 -0.273142 0
0.663253 -0.303722 0
0.752924 -0.319757 0
0.859396 -0.323644 0
0.968036 -0.329474 0
1.071985 -0.332720 0
1.160727 -0.315598 0
1.240515 -0.274427 0
1.311939 -0.215926 0
1.367782 -0.143191 0
1.401746 -0.062093 0
1.413921 0.021360 0
1.408712 0.103789 0
1.390986 0.182871 0
1.359215 0.259188 0
1.319959 0.327612 0
1.290271 0.361731 0
1.277989 0.330941 0
1.263278 0.241652 0
1.223811 0.140139 0
1.173188 0.065946 0
1.123791 0.026663 0
1.080803 0.011797 0
1.045404 0.014133 0
1.025503 0.025364 0
1.015089 0.024522 0
1.010972 0.017935 0
1.000000 -0.000153 0
1.000188 -0.000522 0
1.000558 -0.001056 0
1.001104 -0.001826 0
1.001843 -0.002902 0
1.002825 -0.004350 0
1.004115 -0.006247 0
1.005784 -0.008670 0
1.007908 -0.011696 0
1.010596 -0.015434 0
1.013975 -0.020052 0
1.018175 -0.025799 0
1.023365 -0.033009 0
1.029787 -0.042133 0
1.037802 -0.053774 0
1.047959 -0.068712 0
1.061100 -0.087954 0
1.078783 -0.112618 0
1.103492 -0.143504 0
1.138886 -0.181100 0
1.191379 -0.220278 0
1.261586 -0.266381 0
1.401169 -0.279067 0
1.490004 -0.231640 0
1.535069 -0.171614 0
1.560629 -0.123177 0
1.581294 -0.082948 0
1.601471 -0.041728 0
1.618304 0.008275 0
1.624435 0.069595 0
1.610877 0.136975 0
1.571654 0.197275 0
1.504053 0.243481 0
1.416248 0.277013 0
1.322515 0.300045 0
1.233206 0.320111 0
1.157257 0.339881 0
1.137557 0.342192 0
1.055199 0.444880 0
0.705697 0.659267 0
0.546866 0.575884 0
0.650919 0.172527 0
0.472722 -0.069536 0
0.215243 -0.215848 0
0.077210 -0.511677 0
0.051792 -0.779264 0
0.203435 -0.804990 0
0.482579 -0.622261 0
0.733164 -0.379335 0
0.903525 -0.171619 0
1.022115 -0.031128 0
1.099793 0.092776 0
1.155446 0.214502 0
1.202173 0.310381 0
1.224158 0.370983 0
1.223267 0.391682 0
1.194985 0.371597 0
1.145364 0.333638 0
1.095778 0.334169 0
1.103492 0.374094 0
1.182681 0.339354 0
1.209531 0.185592 0
1.002887 0.170793 0
0.744577 0.243495 0
0.599548 0.174164 0
0.543509 0.076363 0
0.512431 0.018650 0
0.474772 -0.016362 0
0.439068 -0.056024 0
0.430445 -0.110394 0
0.462036 -0.165393 0
0.522289 -0.203236 0
0.589708 -0.226772 0
0.641667 -0.251905 0
0.670033 -0.287840 0
0.680252 -0.336232 0
0.686666 -0.388921 0
0.716338 -0.429596 0
0.778794 -0.445591 0
0.863099 -0.429692 0
0.951588 -0.393261 0
1.034403 -0.344009 0
1.098165 -0.274575 0
1.141402 -0.184727 0
1.168623 -0.083677 0
1.180830 0.017309 0
1.179716 0.113196 0
1.167993 0.203002 0
1.150577 0.284689 0
1.140700 0.345958 0
1.150624 0.364720 0
1.170948 0.329167 0
1.178542 0.255813 0
1.159116 0.178494 0
1.119422 0.121083 0
1.073068 0.087669 0
1.031264 0.070985 0
0.998390 0.055642 0
0.984519 0.041080 0
0.983182 0.027838 0
0.982196 0.018845 0
1.000000 -0.000227 0
1.000112 -0.000749 0
1.000360 -0.001436 0
1.000716 -0.002365 0
1.001204 -0.003631 0
1.001873 -0.005322 0
1.002778 -0.007526 0
1.003988 -0.010324 0
1.005554 -0.013798 0
1.007524 -0.018064 0
1.009939 -0.023299 0
1.012837 -0.029766 0
1.016271 -0.037845 0
1.020335 -0.048067 0
1.025191 -0.061173 0
1.031151 -0.078164 0
1.038517 -0.100613 0
1.048970 -0.130637 0
1.064680 -0.170383 0
1.091174 -0.223037 0
1.134113 -0.282374 0
1.213675 -0.390541 0
1.457409 -0.413832 0
1.526345 -0.297465 0
1.523633 -0.199226 0
1.514179 -0.140270 0
1.515675 -0.102026 0
1.533990 -0.063749 0
1.563839 -0.010329 0
1.596383 0.065316 0
1.615182 0.157615 0
1.611811 0.253088 0
1.576974 0.336526 0
1.497301 0.392008 0
1.381936 0.415431 0
1.254968 0.411111 0
1.147889 0.353811 0
1.044934 0.352892 0
0.970469 0.549855 0
1.037434 0.659974 0
1.277556 0.389458 0
1.158437 0.264998 0
0.821371 0.360222 0
0.702219 0.122359 0
0.615132 -0.311396 0
0.405476 -0.694045 0
0.222720 -0.915281 0
0.263603 -0.863956 0
0.445353 -0.627349 0
0.647113 -0.367756 0
0.814535 -0.143835 0
0.924869 0.035819 0
1.001758 0.157998 0
1.057397 0.251655 0
1.101047 0.335708 0
1.136973 0.388939 0
1.148667 0.396327 0
1.131514 0.365528 0
1.093284 0.326163 0
1.095076 0.282785 0
1.127835 0.272371 0
1.005536 0.407280 0
0.704619 0.504775 0
0.586253 0.387375 0
0.567304 0.212826 0
0.564183 0.098242 0
0.522942 0.057029 0
0.435193 0.037152 0
0.367100 -0.018516 0
0.351370 -0.119699 0
0.394602 -0.226149 0
0.469629 -0.295205 0
0.560120 -0.319972 0
0.652575 -0.317879 0
0.728618 -0.311729 0
0.772085 -0.320356 0
0.773060 -0.355845 0
0.742115 -0.415774 0
0.707514 -0.476236 0
0.700889 -0.505515 0
0.735477 -0.486903 0
0.792686 -0.421006 0
0.849517 -0.322926 0
0.891139 -0.213650 0
0.918282 -0.101522 0
0.935290 0.010265 0
0.944685 0.116625 0
0.950132 0.212010 0
0.958676 0.286480 0
0.978906 0.327564 0
1.011432 0.331481 0
1.044249 0.303021 0
1.062743 0.253482 0
1.062252 0.199256 0
1.048755 0.151992 0
1.031088 0.114819 0
1.015500 0.086473 0
1.004292 0.060877 0
0.994613 0.040570 0
0.984883 0.026843 0
0.981694 0.019392 0
1.000000 -0.000262 0
1.000016 -0.000879 0
1.000200 -0.001659 0
1.000386 -0.002671 0
1.000615 -0.004058 0
1.000917 -0.005924 0
1.001365 -0.008362 0
1.002059 -0.011445 0
1.003029 -0.015233 0
1.004256 -0.019819 0
1.005676 -0.025365 0
1.007232 -0.032131 0
1.008793 -0.040506 0
1.010368 -0.051053 0
1.011762 -0.064589 0
1.013139 -0.082037 0
1.013168 -0.105772 0
1.017428 -0.138781 0
1.013385 -0.185707 0
1.032936 -0.250531 0
1.038314 -0.342778 0
1.144149 -0.589675 0
1.459547 -0.591736 0
1.365168 -0.297864 0
1.246804 -0.159446 0
1.171857 -0.115216 0
1.109334 -0.102756 0
1.124858 -0.089889 0
1.126967 -0.054114 0
1.259232 0.018256 0
1.337506 0.121550 0
1.423161 0.235487 0
1.489378 0.357996 0
1.481343 0.472056 0
1.420335 0.542381 0
1.323751 0.554161 0
1.193125 0.549919 0
1.000535 0.519615 0
0.941430 0.452382 0
1.133686 0.352182 0
1.060146 0.454883 0
0.717359 0.628713 0
0.712039 0.386681 0
0.902906 -0.009609 0
0.978801 -0.214935 0
0.880167 -0.386854 0
0.610743 -0.663120 0
0.378757 -0.844897 0
0.361465 -0.762847 0
0.474602 -0.540804 0
0.623476 -0.308888 0
0.773732 -0.094452 0
0.892699 0.081970 0
0.959445 0.211088 0
1.006454 0.291403 0
1.061976 0.344057 0
1.116317 0.377051 0
1.121631 0.389017 0
1.053449 0.370603 0
0.972522 0.339539 0
0.829337 0.428890 0
0.574504 0.608804 0
0.517533 0.590072 0
0.657936 0.380806 0
0.768562 0.196231 0
0.700503 0.120722 0
0.542974 0.147636 0
0.429015 0.139476 0
0.408053 0.027797 0
0.449600 -0.137898 0
0.512441 -0.283654 0
0.577916 -0.368756 0
0.624138 -0.409720 0
0.662819 -0.420405 0
0.711897 -0.407352 0
0.766647 -0.380676 0
0.806086 -0.358952 0
0.805748 -0.364052 0
0.760327 -0.404366 0
0.691101 -0.457658 0
0.633423 -0.485060 0
0.611159 -0.458050 0
0.623943 -0.373029 0
0.648606 -0.253494 0
0.668097 -0.127830 0
0.689538 -0.009097 0
0.713344 0.098352 0
0.741435 0.189009 0
0.777113 0.255913 0
0.820366 0.293199 0
0.866316 0.299374 0
0.909630 0.277854 0
0.942882 0.237806 0
0.961808 0.192478 0
0.967054 0.152244 0
0.962501 0.120921 0
0.951716 0.097777 0
0.938112 0.076525 0
0.921534 0.060486 0
0.904547 0.040754 0
0.900004 0.024790 0
1.000000 -0.000240 0
0.999959 -0.000946 0
1.000097 -0.001805 0
1.000047 -0.002779 0
1.000168 -0.004162 0
1.000143 -0.006072 0
1.000068 -0.008667 0
1.000054 -0.011987 0
1.000524 -0.015995 0
1.001004 -0.020711 0
1.001400 -0.026274 0
1.002434 -0.032882 0
1.000702 -0.040981 0
1.001467 -0.051035 0
0.999273 -0.063943 0
0.997487 -0.079569 0
0.990633 -0.104901 0
0.986307 -0.130852 0
0.969191 -0.185889 0
0.972334 -0.247964 0
0.921098 -0.393584 0
1.019434 -0.811773 0
0.711633 -0.550129 0
-0.000483 0.000000 0
-0.000628 0.000000 0
0.441740 0.003116 0
0.379414 -0.055024 0
0.431366 -0.081378 0
0.318930 -0.144699 0
0.565345 -0.145218 0
0.623389 -0.006308 0
0.706927 0.101220 0
1.168268 0.278348 0
1.249205 0.461055 0
1.257906 0.573027 0
1.231854 0.638326 0
1.168238 0.677031 0
1.102873 0.604590 0
1.067131 0.416706 0
0.927647 0.541261 0
0.588975 0.805786 0
0.562859 0.613105 0
0.635509 0.174675 0
0.570793 -0.144402 0
0.549033 -0.288658 0
0.635521 -0.325988 0
0.667693 -0.413873 0
0.551482 -0.614680 0
0.438689 -0.723197 0
0.450256 -0.629770 0
0.541715 -0.442969 0
0.663508 -0.233409 0
0.779921 -0.027719 0
0.882745 0.137896 0
0.974169 0.233172 0
1.046282 0.279071 0
1.092554 0.336667 0
1.052782 0.428392 0
0.967965 0.475268 0
0.859390 0.506892 0
0.699718 0.670385 0
0.618445 0.719080 0
0.699798 0.421339 0
0.742344 0.136342 0
0.721351 0.170256 0
0.627209 0.323827 0
0.532827 0.328514 0
0.553761 0.172070 0
0.650444 -0.039104 0
0.747005 -0.224091 0
0.833349 -0.354468 0
0.903461 -0.406904 0
0.934738 -0.404877 0
0.914529 -0.405641 0
0.859346 -0.415559 0
0.813569 -0.414547 0
0.812022 -0.394947 0
0.818010 -0.370017 0
0.802560 -0.361591 0
0.748575 -0.378613 0
0.666546 -0.406964 0
0.586602 -0.411527 0
0.530808 -0.360375 0
0.505952 -0.257808 0
0.505521 -0.142457 0
0.522502 -0.034985 0
0.553109 0.064725 0
0.595685 0.148237 0
0.649134 0.207545 0
0.710153 0.238357 0
0.772252 0.242212 0
0.826842 0.226451 0
0.865629 0.201301 0
0.885258 0.175080 0
0.888849 0.151295 0
0.882154 0.130153 0
0.871171 0.110858 0
0.860246 0.091054 0
0.848532 0.074130 0
0.841973 0.048368 0
0.839996 0.027942 0
1.000000 -0.000218 0
0.999982 -0.000972 0
0.999941 -0.001747 0
0.999889 -0.002741 0
0.999848 -0.004153 0
0.999537 -0.005823 0
0.999444 -0.008272 0
0.999022 -0.011900 0
0.999065 -0.016181 0
0.998193 -0.020694 0
0.998259 -0.026794 0
0.996182 -0.031431 0
0.996549 -0.039538 0
0.991270 -0.049622 0
0.991866 -0.060607 0
0.980764 -0.073395 0
0.979426 -0.094590 0
0.953012 -0.117337 0
0.951419 -0.171732 0
0.880725 -0.202435 0
0.865917 -0.389875 0
0.651634 -0.464929 0
0.000000 0.001427 0
-0.595756 0.168999 0
-0.499119 0.000000 0
0.000000 0.000000 0
-0.006659 -0.102154 0
-0.067028 -0.029400 0
-0.157945 -0.188089 0
-0.153164 -0.286198 0
-0.126691 -0.020026 0
-0.109289 -0.309387 0
0.604107 -0.184277 0
0.818777 0.382423 0
0.964679 0.559737 0
1.048901 0.643834 0
1.080482 0.678904 0
1.080572 0.620725 0
0.963847 0.627611 0
0.649337 0.830340 0
0.560111 0.819673 0
0.597275 0.582180 0
0.471728 0.378748 0
0.310596 0.076867 0
0.225549 -0.279663 0
0.264534 -0.505515 0
0.423614 -0.579083 0
0.541497 -0.615895 0
0.535320 -0.661624 0
0.521333 -0.643833 0
0.560690 -0.522143 0
0.639536 -0.332661 0
0.738515 -0.137270 0
0.849832 0.016836 0
0.952002 0.127861 0
1.005371 0.225667 0
0.990953 0.370547 0
0.940235 0.513602 0
0.913565 0.563991 0
0.866350 0.607782 0
0.837051 0.669831 0
0.938742 0.608719 0
1.008540 0.466169 0
0.894028 0.359250 0
0.743668 0.311363 0
0.722326 0.309242 0
0.806073 0.221081 0
0.926355 0.021856 0
1.022175 -0.165451 0
1.067564 -0.320805 0
1.082918 -0.440113 0
1.100409 -0.470147 0
1.114157 -0.420790 0
1.101208 -0.345016 0
1.047654 -0.306395 0
0.972292 -0.333354 0
0.908534 -0.363396 0
0.877612 -0.354592 0
0.861266 -0.334934 0
0.834390 -0.321647 0
0.780540 -0.323090 0
0.699557 -0.322315 0
0.615896 -0.292382 0
0.558207 -0.228211 0
0.536556 -0.144384 0
0.539171 -0.056688 0
0.562332 0.025165 0
0.602118 0.092979 0
0.652637 0.141441 0
0.705866 0.170076 0
0.752966 0.182681 0
0.787257 0.184471 0
0.806476 0.179385 0
0.813340 0.169252 0
0.812379 0.155343 0
0.808301 0.138594 0
0.804300 0.119680 0
0.801752 0.099159 0
0.801560 0.078753 0
0.805094 0.049284 0
0.805876 0.028214 0
1.000000 -0.000219 0
1.000030 -0.000884 0
0.999803 -0.001711 0
0.999839 -0.002685 0
0.999561 -0.003808 0
0.999464 -0.005667 0
0.999236 -0.008151 0
0.998865 -0.011607 0
0.997972 -0.015165 0
0.997081 -0.019904 0
0.995479 -0.024261 0
0.992853 -0.031170 0
0.991896 -0.036067 0
0.988121 -0.046350 0
0.981121 -0.053435 0
0.973808 -0.067126 0
0.961673 -0.077146 0
0.941831 -0.102842 0
0.918572 -0.113599 0
0.845416 -0.162459 0
0.807707 -0.164489 0
0.470771 -0.024803 0
0.363107 0.022555 0
0.000000 0.000000 0
0.000000 0.000000 0
0.000000 0.000000 0
0.000000 0.000000 0
-0.104384 0.067681 0
-0.034871 -0.058558 0
-0.432461 -0.176466 0
-0.420583 -0.050177 0
-0.410504 -0.629572 0
-0.392150 -0.649712 0
0.222165 0.100489 0
0.626130 0.342908 0
0.862092 0.522528 0
0.955178 0.645364 0
0.964141 0.721228 0
0.828424 0.847944 0
0.673359 0.945000 0
0.674056 0.857850 0
0.604059 0.701489 0
0.585448 0.461354 0
0.674389 0.101777 0
0.706000 -0.242596 0
0.627592 -0.524055 0
0.545672 -0.690838 0
0.551958 -0.726388 0
0.588052 -0.703036 0
0.609596 -0.655143 0
0.635017 -0.561175 0
0.684536 -0.411238 0
0.757381 -0.238019 0
0.832741 -0.075594 0
0.882830 0.077628 0
0.897076 0.240115 0
0.882509 0.401799 0
0.914595 0.505776 0
0.963520 0.549149 0
0.997227 0.583402 0