# vtk DataFile Version 2.0
generated by CFD-lab course output (written by Tobias Neckel) 
ASCII

DATASET STRUCTURED_GRID
DIMENSIONS  48 6 1 
POINTS 288 float

0.000000 0.000000 0
0.202128 0.000000 0
0.404255 0.000000 0
0.606383 0.000000 0
0.808511 0.000000 0
1.010638 0.000000 0
1.212766 0.000000 0
1.414894 0.000000 0
1.617021 0.000000 0
1.819149 0.000000 0
2.021277 0.000000 0
2.223404 0.000000 0
2.425532 0.000000 0
2.627660 0.000000 0
2.829787 0.000000 0
3.031915 0.000000 0
3.234043 0.000000 0
3.436170 0.000000 0
3.638298 0.000000 0
3.840426 0.000000 0
4.042553 0.000000 0
4.244681 0.000000 0
4.446809 0.000000 0
4.648936 0.000000 0
4.851064 0.000000 0
5.053191 0.000000 0
5.255319 0.000000 0
5.457447 0.000000 0
5.659574 0.000000 0
5.861702 0.000000 0
6.063830 0.000000 0
6.265957 0.000000 0
6.468085 0.000000 0
6.670213 0.000000 0
6.872340 0.000000 0
7.074468 0.000000 0
7.276596 0.000000 0
7.478723 0.000000 0
7.680851 0.000000 0
7.882979 0.000000 0
8.085106 0.000000 0
8.287234 0.000000 0
8.489362 0.000000 0
8.691489 0.000000 0
8.893617 0.000000 0
9.095745 0.000000 0
9.297872 0.000000 0
9.500000 0.000000 0
0.000000 0.200000 0
0.202128 0.200000 0
0.404255 0.200000 0
0.606383 0.200000 0
0.808511 0.200000 0
1.010638 0.200000 0
1.212766 0.200000 0
1.414894 0.200000 0
1.617021 0.200000 0
1.819149 0.200000 0
2.021277 0.200000 0
2.223404 0.200000 0
2.425532 0.200000 0
2.627660 0.200000 0
2.829787 0.200000 0
3.031915 0.200000 0
3.234043 0.200000 0
3.436170 0.200000 0
3.638298 0.200000 0
3.840426 0.200000 0
4.042553 0.200000 0
4.244681 0.200000 0
4.446809 0.200000 0
4.648936 0.200000 0
4.851064 0.200000 0
5.053191 0.200000 0
5.255319 0.200000 0
5.457447 0.200000 0
5.659574 0.200000 0
5.861702 0.200000 0
6.063830 0.200000 0
6.265957 0.200000 0
6.468085 0.200000 0
6.670213 0.200000 0
6.872340 0.200000 0
7.074468 0.200000 0
7.276596 0.200000 0
7.478723 0.200000 0
7.680851 0.200000 0
7.882979 0.200000 0
8.085106 0.200000 0
8.287234 0.200000 0
8.489362 0.200000 0
8.691489 0.200000 0
8.893617 0.200000 0
9.095745 0.200000 0
9.297872 0.200000 0
9.500000 0.200000 0
0.000000 0.400000 0
0.202128 0.400000 0
0.404255 0.400000 0
0.606383 0.400000 0
0.808511 0.400000 0
1.010638 0.400000 0
1.212766 0.400000 0
1.414894 0.400000 0
1.617021 0.400000 0
1.819149 0.400000 0
2.021277 0.400000 0
2.223404 0.400000 0
2.425532 0.400000 0
2.627660 0.400000 0
2.829787 0.400000 0
3.031915 0.400000 0
3.234043 0.400000 0
3.436170 0.400000 0
3.638298 0.400000 0
3.840426 0.400000 0
4.042553 0.400000 0
4.244681 0.400000 0
4.446809 0.400000 0
4.648936 0.400000 0
4.851064 0.400000 0
5.053191 0.400000 0
5.255319 0.400000 0
5.457447 0.400000 0
5.659574 0.400000 0
5.861702 0.400000 0
6.063830 0.400000 0
6.265957 0.400000 0
6.468085 0.400000 0
6.670213 0.400000 0
6.872340 0.400000 0
7.074468 0.400000 0
7.276596 0.400000 0
7.478723 0.400000 0
7.680851 0.400000 0
7.882979 0.400000 0
8.085106 0.400000 0
8.287234 0.400000 0
8.489362 0.400000 0
8.691489 0.400000 0
8.893617 0.400000 0
9.095745 0.400000 0
9.297872 0.400000 0
9.500000 0.400000 0
0.000000 0.600000 0
0.202128 0.600000 0
0.404255 0.600000 0
0.606383 0.600000 0
0.808511 0.600000 0
1.010638 0.600000 0
1.212766 0.600000 0
1.414894 0.600000 0
1.617021 0.600000 0
1.819149 0.600000 0
2.021277 0.600000 0
2.223404 0.600000 0
2.425532 0.600000 0
2.627660 0.600000 0
2.829787 0.600000 0
3.031915 0.600000 0
3.234043 0.600000 0
3.436170 0.600000 0
3.638298 0.600000 0
3.840426 0.600000 0
4.042553 0.600000 0
4.244681 0.600000 0
4.446809 0.600000 0
4.648936 0.600000 0
4.851064 0.600000 0
5.053191 0.600000 0
5.255319 0.600000 0
5.457447 0.600000 0
5.659574 0.600000 0
5.861702 0.600000 0
6.063830 0.600000 0
6.265957 0.600000 0
6.468085 0.600000 0
6.670213 0.600000 0
6.872340 0.600000 0
7.074468 0.600000 0
7.276596 0.600000 0
7.478723 0.600000 0
7.680851 0.600000 0
7.882979 0.600000 0
8.085106 0.600000 0
8.287234 0.600000 0
8.489362 0.600000 0
8.691489 0.600000 0
8.893617 0.600000 0
9.095745 0.600000 0
9.297872 0.600000 0
9.500000 0.600000 0
0.000000 0.800000 0
0.202128 0.800000 0
0.404255 0.800000 0
0.606383 0.800000 0
0.808511 0.800000 0
1.010638 0.800000 0
1.212766 0.800000 0
1.414894 0.800000 0
1.617021 0.800000 0
1.819149 0.800000 0
2.021277 0.800000 0
2.223404 0.800000 0
2.425532 0.800000 0
2.627660 0.800000 0
2.829787 0.800000 0
3.031915 0.800000 0
3.234043 0.800000 0
3.436170 0.800000 0
3.638298 0.800000 0
3.840426 0.800000 0
4.042553 0.800000 0
4.244681 0.800000 0
4.446809 0.800000 0
4.648936 0.800000 0
4.851064 0.800000 0
5.053191 0.800000 0
5.255319 0.800000 0
5.457447 0.800000 0
5.659574 0.800000 0
5.861702 0.800000 0
6.063830 0.800000 0
6.265957 0.800000 0
6.468085 0.800000 0
6.670213 0.800000 0
6.872340 0.800000 0
7.074468 0.800000 0
7.276596 0.800000 0
7.478723 0.800000 0
7.680851 0.800000 0
7.882979 0.800000 0
8.085106 0.800000 0
8.287234 0.800000 0
8.489362 0.800000 0
8.691489 0.800000 0
8.893617 0.800000 0
9.095745 0.800000 0
9.297872 0.800000 0
9.500000 0.800000 0
0.000000 1.000000 0
0.202128 1.000000 0
0.404255 1.000000 0
0.606383 1.000000 0
0.808511 1.000000 0
1.010638 1.000000 0
1.212766 1.000000 0
1.414894 1.000000 0
1.617021 1.000000 0
1.819149 1.000000 0
2.021277 1.000000 0
2.223404 1.000000 0
2.425532 1.000000 0
2.627660 1.000000 0
2.829787 1.000000 0
3.031915 1.000000 0
3.234043 1.000000 0
3.436170 1.000000 0
3.638298 1.000000 0
3.840426 1.000000 0
4.042553 1.000000 0
4.244681 1.000000 0
4.446809 1.000000 0
4.648936 1.000000 0
4.851064 1.000000 0
5.053191 1.000000 0
5.255319 1.000000 0
5.457447 1.000000 0
5.659574 1.000000 0
5.861702 1.000000 0
6.063830 1.000000 0
6.265957 1.000000 0
6.468085 1.000000 0
6.670213 1.000000 0
6.872340 1.000000 0
7.074468 1.000000 0
7.276596 1.000000 0
7.478723 1.000000 0
7.680851 1.000000 0
7.882979 1.000000 0
8.085106 1.000000 0
8.287234 1.000000 0
8.489362 1.000000 0
8.691489 1.000000 0
8.893617 1.000000 0
9.095745 1.000000 0
9.297872 1.000000 0
9.500000 1.000000 0
POINT_DATA 288 

VECTORS velocity float
0.000000 0.000000 0
0.000021 0.000000 0
-0.000007 0.000000 0
-0.000013 0.000000 0
0.000007 0.000000 0
0.000009 0.000000 0
-0.000008 0.000000 0
-0.000007 0.000000 0
0.000007 0.000000 0
0.000007 0.000000 0
-0.000005 0.000000 0
-0.000009 0.000000 0
0.000000 0.000000 0
0.000009 0.000000 0
0.000005 0.000000 0
-0.000006 0.000000 0
-0.000008 0.000000 0
0.000000 0.000000 0
0.000009 0.000000 0
0.000006 0.000000 0
-0.000005 0.000000 0
-0.000009 0.000000 0
-0.000001 0.000000 0
0.000008 0.000000 0
0.000006 0.000000 0
-0.000004 0.000000 0
-0.000007 0.000000 0
-0.000001 0.000000 0
0.000005 0.000000 0
0.000005 0.000000 0
-0.000002 0.000000 0
-0.000005 0.000000 0
-0.000002 0.000000 0
0.000002 0.000000 0
0.000003 0.000000 0
0.000000 0.000000 0
-0.000002 0.000000 0
-0.000002 0.000000 0
0.000000 0.000000 0
0.000002 0.000000 0
0.000001 0.000000 0
-0.000000 0.000000 0
-0.000001 0.000000 0
-0.000001 0.000000 0
0.000000 0.000000 0
0.000001 0.000000 0
-0.000000 0.000000 0
0.000000 0.000000 0
0.000000 0.000010 0
0.000034 0.000016 0
0.000010 0.000015 0
-0.000029 -0.000008 0
-0.000020 -0.000031 0
0.000011 -0.000020 0
0.000013 0.000016 0
-0.000006 0.000024 0
-0.000012 -0.000007 0
0.000002 -0.000030 0
0.000012 -0.000008 0
0.000004 0.000024 0
-0.000008 0.000021 0
-0.000008 -0.000009 0
0.000002 -0.000024 0
0.000007 -0.000007 0
0.000001 0.000017 0
-0.000006 0.000018 0
-0.000004 -0.000004 0
0.000003 -0.000019 0
0.000005 -0.000009 0
0.000000 0.000012 0
-0.000005 0.000016 0
-0.000003 -0.000001 0
0.000003 -0.000015 0
0.000004 -0.000009 0
-0.000000 0.000007 0
-0.000004 0.000013 0
-0.000002 0.000002 0
0.000002 -0.000009 0
0.000003 -0.000008 0
0.000000 0.000002 0
-0.000002 0.000008 0
-0.000002 0.000003 0
0.000001 -0.000004 0
0.000002 -0.000005 0
0.000001 -0.000001 0
-0.000001 0.000003 0
-0.000001 0.000003 0
-0.000000 -0.000000 0
0.000001 -0.000002 0
0.000000 -0.000001 0
0.000000 0.000000 0
-0.000000 0.000001 0
-0.000001 0.000001 0
0.000000 -0.000000 0
0.000000 -0.000001 0
0.000000 -0.000000 0
0.000000 0.000013 0
0.000020 0.000007 0
0.000000 -0.000015 0
-0.000020 0.000000 0
-0.000019 0.000022 0
0.000008 0.000000 0
0.000025 -0.000031 0
0.000003 -0.000017 0
-0.000024 0.000019 0
-0.000013 0.000020 0
0.000017 -0.000009 0
0.000020 -0.000022 0
-0.000004 -0.000001 0
-0.000020 0.000020 0
-0.000009 0.000012 0
0.000011 -0.000012 0
0.000014 -0.000019 0
-0.000001 -0.000001 0
-0.000014 0.000018 0
-0.000009 0.000012 0
0.000007 -0.000009 0
0.000013 -0.000017 0
0.000002 -0.000002 0
-0.000010 0.000015 0
-0.000008 0.000011 0
0.000004 -0.000006 0
0.000010 -0.000014 0
0.000002 -0.000004 0
-0.000007 0.000010 0
-0.000006 0.000009 0
0.000001 -0.000002 0
0.000006 -0.000009 0
0.000003 -0.000004 0
-0.000003 0.000004 0
-0.000004 0.000006 0
-0.000000 0.000001 0
0.000003 -0.000004 0
0.000002 -0.000003 0
-0.000001 0.000001 0
-0.000002 0.000003 0
-0.000001 0.000002 0
0.000000 -0.000001 0
0.000001 -0.000002 0
0.000001 -0.000001 0
-0.000001 0.000001 0
-0.000001 0.000001 0
0.000000 0.000000 0
0.000000 -0.000000 0
0.000000 0.000002 0
0.000000 0.000008 0
-0.000014 -0.000004 0
0.000008 -0.000013 0
0.000010 0.000004 0
-0.000006 0.000020 0
-0.000001 0.000001 0
0.000011 -0.000028 0
0.000003 -0.000018 0
-0.000012 0.000017 0
-0.000008 0.000026 0
0.000007 -0.000002 0
0.000012 -0.000022 0
-0.000000 -0.000010 0
-0.000011 0.000014 0
-0.000007 0.000017 0
0.000006 -0.000003 0
0.000011 -0.000018 0
0.000001 -0.000010 0
-0.000010 0.000011 0
-0.000008 0.000016 0
0.000004 0.000000 0
0.000010 -0.000015 0
0.000003 -0.000009 0
-0.000008 0.000007 0
-0.000007 0.000013 0
0.000002 0.000002 0
0.000008 -0.000010 0
0.000003 -0.000008 0
-0.000005 0.000004 0
-0.000005 0.000009 0
0.000000 0.000003 0
0.000005 -0.000005 0
0.000003 -0.000006 0
-0.000002 0.000000 0
-0.000003 0.000005 0
-0.000001 0.000003 0
0.000002 -0.000001 0
0.000002 -0.000003 0
-0.000000 -0.000001 0
-0.000001 0.000001 0
-0.000001 0.000002 0
-0.000000 0.000001 0
0.000001 -0.000001 0
0.000001 -0.000001 0
-0.000001 -0.000000 0
-0.000000 0.000000 0
0.000000 0.000000 0
0.000000 -0.000006 0
-0.000000 -0.000000 0
-0.000021 0.000010 0
0.000006 0.000005 0
0.000028 -0.000010 0
0.000008 -0.000008 0
-0.000014 0.000008 0
-0.000007 0.000008 0
0.000010 -0.000007 0
0.000008 -0.000012 0
-0.000007 0.000002 0
-0.000010 0.000013 0
0.000002 0.000006 0
0.000010 -0.000008 0
0.000004 -0.000010 0
-0.000006 0.000002 0
-0.000007 0.000010 0
0.000002 0.000005 0
0.000008 -0.000006 0
0.000003 -0.000009 0
-0.000006 0.000001 0
-0.000006 0.000009 0
0.000002 0.000005 0
0.000007 -0.000005 0
0.000002 -0.000008 0
-0.000005 -0.000000 0
-0.000005 0.000006 0
0.000001 0.000004 0
0.000005 -0.000003 0
0.000002 -0.000005 0
-0.000003 -0.000001 0
-0.000004 0.000004 0
-0.000000 0.000003 0
0.000003 -0.000001 0
0.000002 -0.000003 0
-0.000001 -0.000002 0
-0.000002 0.000001 0
-0.000001 0.000002 0
0.000001 0.000000 0
0.000001 -0.000001 0
-0.000000 -0.000001 0
-0.000000 -0.000000 0
-0.000001 0.000001 0
-0.000000 0.000001 0
0.000001 -0.000000 0
0.000000 -0.000001 0
-0.000000 -0.000000 0
0.000000 0.000000 0
0.000000 0.000000 0
-0.000006 0.000000 0
-0.000013 0.000000 0
0.000001 0.000000 0
0.000015 0.000000 0
0.000006 0.000000 0
-0.000012 0.000000 0
-0.000010 0.000000 0
0.000007 0.000000 0
0.000012 0.000000 0
-0.000001 0.000000 0
-0.000011 0.000000 0
-0.000004 0.000000 0
0.000006 0.000000 0
0.000007 0.000000 0
-0.000001 0.000000 0
-0.000007 0.000000 0
-0.000003 0.000000 0
0.000004 0.000000 0
0.000006 0.000000 0
-0.000000 0.000000 0
-0.000005 0.000000 0
-0.000003 0.000000 0
0.000003 0.000000 0
0.000004 0.000000 0
0.000000 0.000000 0
-0.000004 0.000000 0
-0.000002 0.000000 0
0.000002 0.000000 0
0.000003 0.000000 0
0.000000 0.000000 0
-0.000002 0.000000 0
-0.000002 0.000000 0
0.000001 0.000000 0
0.000002 0.000000 0
0.000001 0.000000 0
-0.000001 0.000000 0
-0.000001 0.000000 0
0.000000 0.000000 0
0.000001 0.000000 0
0.000000 0.000000 0
-0.000000 0.000000 0
-0.000000 0.000000 0
-0.000000 0.000000 0
0.000000 0.000000 0
0.000000 0.000000 0
-0.000000 0.000000 0
0.000000 0.000000 0

CELL_DATA 235 
SCALARS pressure float 1 
LOOKUP_TABLE default 
0.212032
0.211995
0.211993
0.212017
0.212018
0.212007
0.212014
0.212022
0.212012
0.212000
0.212008
0.212022
0.212022
0.212009
0.212001
0.212009
0.212023
0.212024
0.212010
0.212000
0.212007
0.212022
0.212024
0.212012
0.212001
0.212006
0.212019
0.212022
0.212014
0.212005
0.212007
0.212015
0.212019
0.212015
0.212009
0.212008
0.212012
0.212015
0.212015
0.212012
0.212011
0.212011
0.212013
0.212014
0.212013
0.212012
0.212012
0.133566
0.133530
0.133538
0.133594
0.133611
0.133556
0.133512
0.133547
0.133604
0.133597
0.133540
0.133520
0.133559
0.133597
0.133586
0.133546
0.133531
0.133558
0.133589
0.133584
0.133553
0.133537
0.133556
0.133582
0.133581
0.133558
0.133544
0.133555
0.133574
0.133577
0.133563
0.133552
0.133556
0.133567
0.133571
0.133566
0.133559
0.133558
0.133563
0.133566
0.133566
0.133563
0.133561
0.133562
0.133564
0.133565
0.133564
0.055074
0.055093
0.055103
0.055084
0.055096
0.055121
0.055098
0.055061
0.055076
0.055118
0.055121
0.055082
0.055060
0.055083
0.055116
0.055117
0.055086
0.055065
0.055080
0.055111
0.055117
0.055091
0.055069
0.055079
0.055106
0.055114
0.055094
0.055076
0.055080
0.055099
0.055107
0.055097
0.055084
0.055083
0.055093
0.055100
0.055097
0.055091
0.055088
0.055091
0.055095
0.055095
0.055094
0.055091
0.055091
0.055093
0.055093
-0.023421
-0.023394
-0.023355
-0.023387
-0.023429
-0.023407
-0.023366
-0.023376
-0.023417
-0.023422
-0.023388
-0.023369
-0.023390
-0.023417
-0.023413
-0.023387
-0.023375
-0.023392
-0.023414
-0.023412
-0.023390
-0.023377
-0.023391
-0.023411
-0.023410
-0.023392
-0.023382
-0.023391
-0.023406
-0.023407
-0.023396
-0.023388
-0.023391
-0.023401
-0.023403
-0.023398
-0.023393
-0.023393
-0.023397
-0.023399
-0.023398
-0.023396
-0.023395
-0.023395
-0.023397
-0.023398
-0.023397
-0.101918
-0.101909
-0.101881
-0.101882
-0.101914
-0.101927
-0.101905
-0.101886
-0.101898
-0.101920
-0.101918
-0.101899
-0.101892
-0.101904
-0.101917
-0.101914
-0.101902
-0.101897
-0.101905
-0.101915
-0.101913
-0.101903
-0.101899
-0.101905
-0.101913
-0.101912
-0.101905
-0.101901
-0.101905
-0.101911
-0.101911
-0.101907
-0.101904
-0.101905
-0.101909
-0.101910
-0.101908
-0.101906
-0.101906
-0.101908
-0.101908
-0.101908
-0.101907
-0.101907
-0.101907
-0.101908
-0.101908

SCALARS temperature float 1 
LOOKUP_TABLE default 
0.270567
0.275166
0.275587
0.275498
0.274688
0.272437
0.273860
0.278702
0.283359
0.285944
0.287037
0.287678
0.288301
0.288946
0.289738
0.290645
0.291544
0.292417
0.293371
0.294424
0.295105
0.295400
0.295823
0.296580
0.297255
0.297619
0.297875
0.298160
0.298602
0.299073
0.299365
0.299474
0.299562
0.299803
0.300137
0.300366
0.300388
0.300416
0.300608
0.300828
0.300950
0.301026
0.301110
0.301218
0.301342
0.301461
0.301581
0.150804
0.154362
0.154720
0.147574
0.133669
0.124552
0.124083
0.129530
0.135740
0.138820
0.138341
0.136458
0.134966
0.134249
0.134059
0.134026
0.133895
0.133997
0.134601
0.134907
0.134852
0.134837
0.134884
0.134858
0.134879
0.134871
0.134772
0.135014
0.135277
0.135238
0.135167
0.135139
0.135066
0.135091
0.135311
0.135416
0.135299
0.135139
0.135179
0.135388
0.135527
0.135464
0.135389
0.135381
0.135349
0.135287
0.135326
0.029410
0.032437
0.034203
0.023330
0.005355
-0.006297
-0.006496
-0.000165
0.006731
0.010484
0.010253
0.007651
0.004984
0.003722
0.003356
0.002823
0.002165
0.002215
0.002631
0.002740
0.002396
0.001856
0.001574
0.001624
0.001589
0.001184
0.000880
0.000900
0.001003
0.001067
0.000946
0.000630
0.000376
0.000401
0.000574
0.000642
0.000445
0.000159
0.000157
0.000400
0.000491
0.000375
0.000229
0.000153
0.000027
-0.000098
-0.000131
-0.108144
-0.104824
-0.102813
-0.111556
-0.126604
-0.136388
-0.137311
-0.132056
-0.125490
-0.122013
-0.122731
-0.125563
-0.127777
-0.128769
-0.129420
-0.130206
-0.130787
-0.131022
-0.130933
-0.131029
-0.131558
-0.132064
-0.132345
-0.132590
-0.132939
-0.133285
-0.133570
-0.133676
-0.133629
-0.133772
-0.134041
-0.134259
-0.134443
-0.134575
-0.134530
-0.134466
-0.134665
-0.134945
-0.134989
-0.134839
-0.134758
-0.134882
-0.135041
-0.135172
-0.135315
-0.135496
-0.135550
-0.283406
-0.281762
-0.279779
-0.284171
-0.291288
-0.295368
-0.295692
-0.293610
-0.290695
-0.289024
-0.289591
-0.291302
-0.292732
-0.293497
-0.294063
-0.294812
-0.295530
-0.295873
-0.296048
-0.296436
-0.297023
-0.297592
-0.297944
-0.298167
-0.298496
-0.298946
-0.299317
-0.299489
-0.299593
-0.299743
-0.299984
-0.300251
-0.300444
-0.300541
-0.300598
-0.300676
-0.300815
-0.300985
-0.301073
-0.301049
-0.301049
-0.301155
-0.301292
-0.301405
-0.301552
-0.301700
-0.301777


SCALARS Species_1 float 1 
LOOKUP_TABLE default 
0.000000
0.000000
0.000000
0.000000
0.000000
0.000000
0.000000
0.000000
0.000000
0.000000
0.000000
0.000000
0.000000
0.000000
0.000000
0.000000
0.000000
0.000000
0.000000
0.000000
0.000000
0.000000
0.000000
0.000000
0.000000
0.000000
0.000000
0.000000
0.000000
0.000000
0.000000
0.000000
0.000000
0.000000
0.000000
0.000000
0.000000
0.000000
0.000000
0.000000
0.000000
0.000000
0.000000
0.000000
0.000000
0.000000
0.000000
0.000000
0.000000
0.000000
0.000000
0.000000
0.000000
0.000000
0.000000
0.000000
0.000000
0.000000
0.000000
0.000000
0.000000
0.000000
0.000000
0.000000
0.000000
0.000000
0.000000
0.000000
0.000000
0.000000
0.000000
0.000000
0.000000
0.000000
0.000000
0.000000
0.000000
0.000000
0.000000
0.000000
0.000000
0.000000
0.000000
0.000000
0.000000
0.000000
0.000000
0.000000
0.000000
0.000000
0.000000
0.000000
0.000000
0.000000
0.000000
0.000000
0.000000
0.000000
0.000000
0.000000
0.000000
0.000000
0.000000
0.000000
0.000000
0.000000
0.000000
0.000000
0.000000
0.000000
0.000000
0.000000
0.000000
0.000000
0.000000
0.000000
0.000000
0.000000
0.000000
0.000000
0.000000
0.000000
0.000000
0.000000
0.000000
0.000000
0.000000
0.000000
0.000000
0.000000
0.000000
0.000000
0.000000
0.000000
0.000000
0.000000
0.000000
0.000000
0.000000
0.000000
0.000000
0.000000
0.000000
0.000000
0.000000
0.000000
0.000000
0.000000
0.000000
0.000000
0.000000
0.000000
0.000000
0.000000
0.000000
0.000000
0.000000
0.000000
0.000000
0.000000
0.000000
0.000000
0.000000
0.000000
0.000000
0.000000
0.000000
0.000000
0.000000
0.000000
0.000000
0.000000
0.000000
0.000000
0.000000
0.000000
0.000000
0.000000
0.000000
0.000000
0.000000
0.000000
0.000000
0.000000
0.000000
0.000000
0.000000
0.000000
0.000000
0.000000
0.000000
0.000000
0.000000
0.000000
0.000000
0.000000
0.000000
0.000000
0.000000
0.000000
0.000000
0.000000
0.000000
0.000000
0.000000
0.000000
0.000000
0.000000
0.000000
0.000000
0.000000
0.000000
0.000000
0.000000
0.000000
0.000000
0.000000
0.000000
0.000000
0.000000
0.000000
0.000000
0.000000
0.000000
0.000000
0.000000
0.000000
0.000000
0.000000
0.000000
0.000000
0.000000
0.000000
0.000000
0.000000


SCALARS Species_2 float 1 
LOOKUP_TABLE default 
0.000000
0.000000
0.000000
0.000000
0.000000
0.000000
0.000000
0.000000
0.000000
0.000000
0.000000
0.000000
0.000000
0.000000
0.000000
0.000000
0.000000
0.000000
0.000000
0.000000
0.000000
0.000000
0.000000
0.000000
0.000000
0.000000
0.000000
0.000000
0.000000
0.000000
0.000000
0.000000
0.000000
0.000000
0.000000
0.000000
0.000000
0.000000
0.000000
0.000000
0.000000
0.000000
0.000000
0.000000
0.000000
0.000000
0.000000
0.000000
0.000000
0.000000
0.000000
0.000000
0.000000
0.000000
0.000000
0.000000
0.000000
0.000000
0.000000
0.000000
0.000000
0.000000
0.000000
0.000000
0.000000
0.000000
0.000000
0.000000
0.000000
0.000000
0.000000
0.000000
0.000000
0.000000
0.000000
0.000000
0.000000
0.000000
0.000000
0.000000
0.000000
0.000000
0.000000
0.000000
0.000000
0.000000
0.000000
0.000000
0.000000
0.000000
0.000000
0.000000
0.000000
0.000000
0.000000
0.000000
0.000000
0.000000
0.000000
0.000000
0.000000
0.000000
0.000000
0.000000
0.000000
0.000000
0.000000
0.000000
0.000000
0.000000
0.000000
0.000000
0.000000
0.000000
0.000000
0.000000
0.000000
0.000000
0.000000
0.000000
0.000000
0.000000
0.000000
0.000000
0.000000
0.000000
0.000000
0.000000
0.000000
0.000000
0.000000
0.000000
0.000000
0.000000
0.000000
0.000000
0.000000
0.000000
0.000000
0.000000
0.000000
0.000000
0.000000
0.000000
0.000000
0.000000
0.000000
0.000000
0.000000
0.000000
0.000000
0.000000
0.000000
0.000000
0.000000
0.000000
0.000000
0.000000
0.000000
0.000000
0.000000
0.000000
0.000000
0.000000
0.000000
0.000000
0.000000
0.000000
0.000000
0.000000
0.000000
0.000000
0.000000
0.000000
0.000000
0.000000
0.000000
0.000000
0.000000
0.000000
0.000000
0.000000
0.000000
0.000000
0.000000
0.000000
0.000000
0.000000
0.000000
0.000000
0.000000
0.000000
0.000000
0.000000
0.000000
0.000000
0.000000
0.000000
0.000000
0.000000
0.000000
0.000000
0.000000
0.000000
0.000000
0.000000
0.000000
0.000000
0.000000
0.000000
0.000000
0.000000
0.000000
0.000000
0.000000
0.000000
0.000000
0.000000
0.000000
0.000000
0.000000
0.000000
0.000000
0.000000
0.000000
0.000000
0.000000
0.000000
0.000000
0.000000
0.000000
0.000000
0.000000
0.000000
0.000000


SCALARS Species_3 float 1 
LOOKUP_TABLE default 
0.000000
0.000000
0.000000
0.000000
0.000000
0.000000
0.000000
0.000000
0.000000
0.000000
0.000000
0.000000
0.000000
0.000000
0.000000
0.000000
0.000000
0.000000
0.000000
0.000000
0.000000
0.000000
0.000000
0.000000
0.000000
0.000000
0.000000
0.000000
0.000000
0.000000
0.000000
0.000000
0.000000
0.000000
0.000000
0.000000
0.000000
0.000000
0.000000
0.000000
0.000000
0.000000
0.000000
0.000000
0.000000
0.000000
0.000000
0.000000
0.000000
0.000000
0.000000
0.000000
0.000000
0.000000
0.000000
0.000000
0.000000
0.000000
0.000000
0.000000
0.000000
0.000000
0.000000
0.000000
0.000000
0.000000
0.000000
0.000000
0.000000
0.000000
0.000000
0.000000
0.000000
0.000000
0.000000
0.000000
0.000000
0.000000
0.000000
0.000000
0.000000
0.000000
0.000000
0.000000
0.000000
0.000000
0.000000
0.000000
0.000000
0.000000
0.000000
0.000000
0.000000
0.000000
0.000000
0.000000
0.000000
0.000000
0.000000
0.000000
0.000000
0.000000
0.000000
0.000000
0.000000
0.000000
0.000000
0.000000
0.000000
0.000000
0.000000
0.000000
0.000000
0.000000
0.000000
0.000000
0.000000
0.000000
0.000000
0.000000
0.000000
0.000000
0.000000
0.000000
0.000000
0.000000
0.000000
0.000000
0.000000
0.000000
0.000000
0.000000
0.000000
0.000000
0.000000
0.000000
0.000000
0.000000
0.000000
0.000000
0.000000
0.000000
0.000000
0.000000
0.000000
0.000000
0.000000
0.000000
0.000000
0.000000
0.000000
0.000000
0.000000
0.000000
0.000000
0.000000
0.000000
0.000000
0.000000
0.000000
0.000000
0.000000
0.000000
0.000000
0.000000
0.000000
0.000000
0.000000
0.000000
0.000000
0.000000
0.000000
0.000000
0.000000
0.000000
0.000000
0.000000
0.000000
0.000000
0.000000
0.000000
0.000000
0.000000
0.000000
0.000000
0.000000
0.000000
0.000000
0.000000
0.000000
0.000000
0.000000
0.000000
0.000000
0.000000
0.000000
0.000000
0.000000
0.000000
0.000000
0.000000
0.000000
0.000000
0.000000
0.000000
0.000000
0.000000
0.000000
0.000000
0.000000
0.000000
0.000000
0.000000
0.000000
0.000000
0.000000
0.000000
0.000000
0.000000
0.000000
0.000000
0.000000
0.000000
0.000000
0.000000
0.000000
0.000000
0.000000
0.000000
0.000000
0.000000
0.000000
0.000000
0.000000
0.000000


SCALARS Species_4 float 1 
LOOKUP_TABLE default 
0.000000
0.000000
0.000000
0.000000
0.000000
0.000000
0.000000
0.000000
0.000000
0.000000
0.000000
0.000000
0.000000
0.000000
0.000000
0.000000
0.000000
0.000000
0.000000
0.000000
0.000000
0.000000
0.000000
0.000000
0.000000
0.000000
0.000000
0.000000
0.000000
0.000000
0.000000
0.000000
0.000000
0.000000
0.000000
0.000000
0.000000
0.000000
0.000000
0.000000
0.000000
0.000000
0.000000
0.000000
0.000000
0.000000
0.000000
0.000000
0.000000
0.000000
0.000000
0.000000
0.000000
0.000000
0.000000
0.000000
0.000000
0.000000
0.000000
0.000000
0.000000
0.000000
0.000000
0.000000
0.000000
0.000000
0.000000
0.000000
0.000000
0.000000
0.000000
0.000000
0.000000
0.000000
0.000000
0.000000
0.000000
0.000000
0.000000
0.000000
0.000000
0.000000
0.000000
0.000000
0.000000
0.000000
0.000000
0.000000
0.000000
0.000000
0.000000
0.000000
0.000000
0.000000
0.000000
0.000000
0.000000
0.000000
0.000000
0.000000
0.000000
0.000000
0.000000
0.000000
0.000000
0.000000
0.000000
0.000000
0.000000
0.000000
0.000000
0.000000
0.000000
0.000000
0.000000
0.000000
0.000000
0.000000
0.000000
0.000000
0.000000
0.000000
0.000000
0.000000
0.000000
0.000000
0.000000
0.000000
0.000000
0.000000
0.000000
0.000000
0.000000
0.000000
0.000000
0.000000
0.000000
0.000000
0.000000
0.000000
0.000000
0.000000
0.000000
0.000000
0.000000
0.000000
0.000000
0.000000
0.000000
0.000000
0.000000
0.000000
0.000000
0.000000
0.000000
0.000000
0.000000
0.000000
0.000000
0.000000
0.000000
0.000000
0.000000
0.000000
0.000000
0.000000
0.000000
0.000000
0.000000
0.000000
0.000000
0.000000
0.000000
0.000000
0.000000
0.000000
0.000000
0.000000
0.000000
0.000000
0.000000
0.000000
0.000000
0.000000
0.000000
0.000000
0.000000
0.000000
0.000000
0.000000
0.000000
0.000000
0.000000
0.000000
0.000000
0.000000
0.000000
0.000000
0.000000
0.000000
0.000000
0.000000
0.000000
0.000000
0.000000
0.000000
0.000000
0.000000
0.000000
0.000000
0.000000
0.000000
0.000000
0.000000
0.000000
0.000000
0.000000
0.000000
0.000000
0.000000
0.000000
0.000000
0.000000
0.000000
0.000000
0.000000
0.000000
0.000000
0.000000
0.000000
0.000000
0.000000
0.000000
0.000000
0.000000
