# vtk DataFile Version 2.0
generated by CFD-lab course output (written by Tobias Neckel) 
ASCII

DATASET STRUCTURED_GRID
DIMENSIONS  48 6 1 
POINTS 288 float

0.000000 0.000000 0
0.202128 0.000000 0
0.404255 0.000000 0
0.606383 0.000000 0
0.808511 0.000000 0
1.010638 0.000000 0
1.212766 0.000000 0
1.414894 0.000000 0
1.617021 0.000000 0
1.819149 0.000000 0
2.021277 0.000000 0
2.223404 0.000000 0
2.425532 0.000000 0
2.627660 0.000000 0
2.829787 0.000000 0
3.031915 0.000000 0
3.234043 0.000000 0
3.436170 0.000000 0
3.638298 0.000000 0
3.840426 0.000000 0
4.042553 0.000000 0
4.244681 0.000000 0
4.446809 0.000000 0
4.648936 0.000000 0
4.851064 0.000000 0
5.053191 0.000000 0
5.255319 0.000000 0
5.457447 0.000000 0
5.659574 0.000000 0
5.861702 0.000000 0
6.063830 0.000000 0
6.265957 0.000000 0
6.468085 0.000000 0
6.670213 0.000000 0
6.872340 0.000000 0
7.074468 0.000000 0
7.276596 0.000000 0
7.478723 0.000000 0
7.680851 0.000000 0
7.882979 0.000000 0
8.085106 0.000000 0
8.287234 0.000000 0
8.489362 0.000000 0
8.691489 0.000000 0
8.893617 0.000000 0
9.095745 0.000000 0
9.297872 0.000000 0
9.500000 0.000000 0
0.000000 0.200000 0
0.202128 0.200000 0
0.404255 0.200000 0
0.606383 0.200000 0
0.808511 0.200000 0
1.010638 0.200000 0
1.212766 0.200000 0
1.414894 0.200000 0
1.617021 0.200000 0
1.819149 0.200000 0
2.021277 0.200000 0
2.223404 0.200000 0
2.425532 0.200000 0
2.627660 0.200000 0
2.829787 0.200000 0
3.031915 0.200000 0
3.234043 0.200000 0
3.436170 0.200000 0
3.638298 0.200000 0
3.840426 0.200000 0
4.042553 0.200000 0
4.244681 0.200000 0
4.446809 0.200000 0
4.648936 0.200000 0
4.851064 0.200000 0
5.053191 0.200000 0
5.255319 0.200000 0
5.457447 0.200000 0
5.659574 0.200000 0
5.861702 0.200000 0
6.063830 0.200000 0
6.265957 0.200000 0
6.468085 0.200000 0
6.670213 0.200000 0
6.872340 0.200000 0
7.074468 0.200000 0
7.276596 0.200000 0
7.478723 0.200000 0
7.680851 0.200000 0
7.882979 0.200000 0
8.085106 0.200000 0
8.287234 0.200000 0
8.489362 0.200000 0
8.691489 0.200000 0
8.893617 0.200000 0
9.095745 0.200000 0
9.297872 0.200000 0
9.500000 0.200000 0
0.000000 0.400000 0
0.202128 0.400000 0
0.404255 0.400000 0
0.606383 0.400000 0
0.808511 0.400000 0
1.010638 0.400000 0
1.212766 0.400000 0
1.414894 0.400000 0
1.617021 0.400000 0
1.819149 0.400000 0
2.021277 0.400000 0
2.223404 0.400000 0
2.425532 0.400000 0
2.627660 0.400000 0
2.829787 0.400000 0
3.031915 0.400000 0
3.234043 0.400000 0
3.436170 0.400000 0
3.638298 0.400000 0
3.840426 0.400000 0
4.042553 0.400000 0
4.244681 0.400000 0
4.446809 0.400000 0
4.648936 0.400000 0
4.851064 0.400000 0
5.053191 0.400000 0
5.255319 0.400000 0
5.457447 0.400000 0
5.659574 0.400000 0
5.861702 0.400000 0
6.063830 0.400000 0
6.265957 0.400000 0
6.468085 0.400000 0
6.670213 0.400000 0
6.872340 0.400000 0
7.074468 0.400000 0
7.276596 0.400000 0
7.478723 0.400000 0
7.680851 0.400000 0
7.882979 0.400000 0
8.085106 0.400000 0
8.287234 0.400000 0
8.489362 0.400000 0
8.691489 0.400000 0
8.893617 0.400000 0
9.095745 0.400000 0
9.297872 0.400000 0
9.500000 0.400000 0
0.000000 0.600000 0
0.202128 0.600000 0
0.404255 0.600000 0
0.606383 0.600000 0
0.808511 0.600000 0
1.010638 0.600000 0
1.212766 0.600000 0
1.414894 0.600000 0
1.617021 0.600000 0
1.819149 0.600000 0
2.021277 0.600000 0
2.223404 0.600000 0
2.425532 0.600000 0
2.627660 0.600000 0
2.829787 0.600000 0
3.031915 0.600000 0
3.234043 0.600000 0
3.436170 0.600000 0
3.638298 0.600000 0
3.840426 0.600000 0
4.042553 0.600000 0
4.244681 0.600000 0
4.446809 0.600000 0
4.648936 0.600000 0
4.851064 0.600000 0
5.053191 0.600000 0
5.255319 0.600000 0
5.457447 0.600000 0
5.659574 0.600000 0
5.861702 0.600000 0
6.063830 0.600000 0
6.265957 0.600000 0
6.468085 0.600000 0
6.670213 0.600000 0
6.872340 0.600000 0
7.074468 0.600000 0
7.276596 0.600000 0
7.478723 0.600000 0
7.680851 0.600000 0
7.882979 0.600000 0
8.085106 0.600000 0
8.287234 0.600000 0
8.489362 0.600000 0
8.691489 0.600000 0
8.893617 0.600000 0
9.095745 0.600000 0
9.297872 0.600000 0
9.500000 0.600000 0
0.000000 0.800000 0
0.202128 0.800000 0
0.404255 0.800000 0
0.606383 0.800000 0
0.808511 0.800000 0
1.010638 0.800000 0
1.212766 0.800000 0
1.414894 0.800000 0
1.617021 0.800000 0
1.819149 0.800000 0
2.021277 0.800000 0
2.223404 0.800000 0
2.425532 0.800000 0
2.627660 0.800000 0
2.829787 0.800000 0
3.031915 0.800000 0
3.234043 0.800000 0
3.436170 0.800000 0
3.638298 0.800000 0
3.840426 0.800000 0
4.042553 0.800000 0
4.244681 0.800000 0
4.446809 0.800000 0
4.648936 0.800000 0
4.851064 0.800000 0
5.053191 0.800000 0
5.255319 0.800000 0
5.457447 0.800000 0
5.659574 0.800000 0
5.861702 0.800000 0
6.063830 0.800000 0
6.265957 0.800000 0
6.468085 0.800000 0
6.670213 0.800000 0
6.872340 0.800000 0
7.074468 0.800000 0
7.276596 0.800000 0
7.478723 0.800000 0
7.680851 0.800000 0
7.882979 0.800000 0
8.085106 0.800000 0
8.287234 0.800000 0
8.489362 0.800000 0
8.691489 0.800000 0
8.893617 0.800000 0
9.095745 0.800000 0
9.297872 0.800000 0
9.500000 0.800000 0
0.000000 1.000000 0
0.202128 1.000000 0
0.404255 1.000000 0
0.606383 1.000000 0
0.808511 1.000000 0
1.010638 1.000000 0
1.212766 1.000000 0
1.414894 1.000000 0
1.617021 1.000000 0
1.819149 1.000000 0
2.021277 1.000000 0
2.223404 1.000000 0
2.425532 1.000000 0
2.627660 1.000000 0
2.829787 1.000000 0
3.031915 1.000000 0
3.234043 1.000000 0
3.436170 1.000000 0
3.638298 1.000000 0
3.840426 1.000000 0
4.042553 1.000000 0
4.244681 1.000000 0
4.446809 1.000000 0
4.648936 1.000000 0
4.851064 1.000000 0
5.053191 1.000000 0
5.255319 1.000000 0
5.457447 1.000000 0
5.659574 1.000000 0
5.861702 1.000000 0
6.063830 1.000000 0
6.265957 1.000000 0
6.468085 1.000000 0
6.670213 1.000000 0
6.872340 1.000000 0
7.074468 1.000000 0
7.276596 1.000000 0
7.478723 1.000000 0
7.680851 1.000000 0
7.882979 1.000000 0
8.085106 1.000000 0
8.287234 1.000000 0
8.489362 1.000000 0
8.691489 1.000000 0
8.893617 1.000000 0
9.095745 1.000000 0
9.297872 1.000000 0
9.500000 1.000000 0
POINT_DATA 288 

VECTORS velocity float
0.000000 0.000000 0
0.000009 0.000000 0
0.000002 0.000000 0
-0.000004 0.000000 0
-0.000002 0.000000 0
0.000001 0.000000 0
0.000001 0.000000 0
-0.000001 0.000000 0
-0.000001 0.000000 0
0.000001 0.000000 0
0.000002 0.000000 0
-0.000001 0.000000 0
-0.000004 0.000000 0
-0.000000 0.000000 0
0.000004 0.000000 0
0.000003 0.000000 0
-0.000003 0.000000 0
-0.000004 0.000000 0
0.000000 0.000000 0
0.000004 0.000000 0
0.000002 0.000000 0
-0.000002 0.000000 0
-0.000003 0.000000 0
0.000000 0.000000 0
0.000002 0.000000 0
0.000001 0.000000 0
-0.000001 0.000000 0
-0.000002 0.000000 0
-0.000000 0.000000 0
0.000001 0.000000 0
0.000001 0.000000 0
-0.000000 0.000000 0
-0.000001 0.000000 0
-0.000000 0.000000 0
0.000000 0.000000 0
0.000000 0.000000 0
-0.000000 0.000000 0
-0.000000 0.000000 0
-0.000000 0.000000 0
0.000000 0.000000 0
0.000000 0.000000 0
-0.000000 0.000000 0
-0.000000 0.000000 0
0.000000 0.000000 0
0.000000 0.000000 0
-0.000000 0.000000 0
-0.000000 0.000000 0
0.000000 0.000000 0
0.000000 0.000007 0
0.000005 0.000003 0
-0.000004 0.000009 0
-0.000012 0.000006 0
-0.000009 -0.000012 0
-0.000004 -0.000015 0
-0.000004 0.000004 0
-0.000003 0.000012 0
0.000006 -0.000006 0
0.000013 -0.000018 0
0.000005 0.000001 0
-0.000009 0.000022 0
-0.000010 0.000010 0
0.000003 -0.000017 0
0.000009 -0.000017 0
-0.000000 0.000008 0
-0.000010 0.000019 0
-0.000005 0.000001 0
0.000007 -0.000017 0
0.000008 -0.000010 0
-0.000002 0.000010 0
-0.000007 0.000014 0
-0.000003 -0.000001 0
0.000005 -0.000012 0
0.000004 -0.000006 0
-0.000001 0.000007 0
-0.000004 0.000008 0
-0.000001 -0.000001 0
0.000003 -0.000007 0
0.000002 -0.000003 0
-0.000001 0.000003 0
-0.000002 0.000004 0
-0.000001 0.000000 0
0.000001 -0.000003 0
0.000001 -0.000002 0
0.000000 0.000001 0
-0.000001 0.000002 0
-0.000000 0.000000 0
0.000000 -0.000001 0
0.000000 -0.000001 0
0.000000 0.000000 0
-0.000000 0.000001 0
-0.000000 0.000000 0
-0.000000 -0.000000 0
-0.000000 -0.000000 0
-0.000000 -0.000000 0
-0.000000 -0.000000 0
0.000000 0.000000 0
0.000000 0.000002 0
-0.000000 0.000001 0
0.000004 0.000003 0
-0.000005 0.000015 0
-0.000016 0.000011 0
-0.000005 -0.000017 0
0.000012 -0.000030 0
0.000005 -0.000005 0
-0.000010 0.000021 0
-0.000006 0.000010 0
0.000012 -0.000016 0
0.000011 -0.000011 0
-0.000008 0.000017 0
-0.000015 0.000022 0
0.000001 -0.000007 0
0.000013 -0.000026 0
0.000004 -0.000007 0
-0.000010 0.000020 0
-0.000009 0.000016 0
0.000005 -0.000010 0
0.000010 -0.000018 0
0.000001 -0.000001 0
-0.000009 0.000015 0
-0.000005 0.000009 0
0.000004 -0.000008 0
0.000006 -0.000012 0
-0.000000 -0.000000 0
-0.000005 0.000009 0
-0.000003 0.000005 0
0.000002 -0.000003 0
0.000003 -0.000006 0
0.000000 -0.000001 0
-0.000002 0.000004 0
-0.000001 0.000003 0
0.000001 -0.000001 0
0.000001 -0.000002 0
0.000000 -0.000001 0
-0.000001 0.000001 0
-0.000001 0.000001 0
0.000000 -0.000000 0
0.000000 -0.000001 0
0.000000 -0.000000 0
-0.000000 0.000000 0
-0.000000 0.000000 0
-0.000000 0.000000 0
-0.000000 -0.000000 0
-0.000000 -0.000000 0
0.000000 -0.000000 0
0.000000 -0.000001 0
-0.000004 0.000007 0
0.000005 0.000005 0
0.000011 -0.000003 0
0.000000 0.000002 0
-0.000008 0.000007 0
0.000004 -0.000009 0
0.000013 -0.000026 0
-0.000001 -0.000011 0
-0.000017 0.000021 0
-0.000010 0.000022 0
0.000012 -0.000007 0
0.000015 -0.000020 0
-0.000005 0.000001 0
-0.000015 0.000020 0
-0.000001 0.000007 0
0.000014 -0.000017 0
0.000007 -0.000016 0
-0.000009 0.000008 0
-0.000011 0.000018 0
0.000002 0.000002 0
0.000010 -0.000014 0
0.000003 -0.000009 0
-0.000007 0.000007 0
-0.000006 0.000011 0
0.000002 0.000000 0
0.000006 -0.000009 0
0.000001 -0.000005 0
-0.000004 0.000004 0
-0.000003 0.000006 0
0.000001 0.000001 0
0.000003 -0.000004 0
0.000001 -0.000003 0
-0.000001 0.000001 0
-0.000001 0.000002 0
0.000000 0.000001 0
0.000001 -0.000001 0
0.000001 -0.000001 0
-0.000000 -0.000000 0
-0.000001 0.000001 0
-0.000000 0.000000 0
0.000000 -0.000000 0
0.000000 -0.000000 0
-0.000000 0.000000 0
-0.000000 0.000000 0
0.000000 -0.000000 0
0.000000 -0.000000 0
0.000000 -0.000000 0
0.000000 -0.000000 0
-0.000000 0.000002 0
0.000001 0.000008 0
0.000011 0.000004 0
0.000015 -0.000006 0
0.000005 -0.000006 0
-0.000004 0.000002 0
-0.000001 0.000001 0
0.000004 -0.000008 0
-0.000004 -0.000006 0
-0.000013 0.000008 0
-0.000004 0.000013 0
0.000012 0.000000 0
0.000011 -0.000012 0
-0.000004 -0.000005 0
-0.000010 0.000008 0
0.000000 0.000008 0
0.000010 -0.000004 0
0.000004 -0.000010 0
-0.000007 -0.000001 0
-0.000007 0.000008 0
0.000002 0.000005 0
0.000007 -0.000004 0
0.000002 -0.000006 0
-0.000005 -0.000000 0
-0.000004 0.000005 0
0.000002 0.000003 0
0.000004 -0.000003 0
0.000001 -0.000003 0
-0.000002 -0.000000 0
-0.000002 0.000003 0
0.000001 0.000001 0
0.000002 -0.000001 0
0.000001 -0.000002 0
-0.000001 -0.000000 0
-0.000001 0.000001 0
0.000000 0.000001 0
0.000001 -0.000000 0
0.000000 -0.000001 0
-0.000000 -0.000000 0
-0.000000 0.000000 0
0.000000 0.000000 0
0.000000 0.000000 0
0.000000 -0.000000 0
0.000000 -0.000000 0
0.000000 -0.000000 0
0.000000 -0.000000 0
0.000000 0.000000 0
0.000000 0.000000 0
-0.000001 0.000000 0
0.000002 0.000000 0
-0.000001 0.000000 0
-0.000004 0.000000 0
0.000001 0.000000 0
0.000005 0.000000 0
0.000000 0.000000 0
-0.000004 0.000000 0
-0.000002 0.000000 0
0.000003 0.000000 0
0.000003 0.000000 0
-0.000002 0.000000 0
-0.000003 0.000000 0
0.000000 0.000000 0
0.000003 0.000000 0
0.000001 0.000000 0
-0.000002 0.000000 0
-0.000002 0.000000 0
0.000001 0.000000 0
0.000002 0.000000 0
0.000000 0.000000 0
-0.000002 0.000000 0
-0.000001 0.000000 0
0.000001 0.000000 0
0.000001 0.000000 0
-0.000000 0.000000 0
-0.000001 0.000000 0
-0.000000 0.000000 0
0.000000 0.000000 0
0.000000 0.000000 0
-0.000000 0.000000 0
-0.000000 0.000000 0
-0.000000 0.000000 0
0.000000 0.000000 0
0.000000 0.000000 0
0.000000 0.000000 0
-0.000000 0.000000 0
-0.000000 0.000000 0
0.000000 0.000000 0
0.000000 0.000000 0
0.000000 0.000000 0
-0.000000 0.000000 0
0.000000 0.000000 0
0.000000 0.000000 0
-0.000000 0.000000 0
0.000000 0.000000 0
0.000000 0.000000 0

CELL_DATA 235 
SCALARS pressure float 1 
LOOKUP_TABLE default 
0.212016
0.212004
0.212004
0.212007
0.212008
0.212016
0.212026
0.212021
0.212006
0.212001
0.212012
0.212020
0.212015
0.212006
0.212007
0.212015
0.212019
0.212014
0.212008
0.212009
0.212014
0.212015
0.212012
0.212010
0.212011
0.212014
0.212014
0.212012
0.212011
0.212012
0.212013
0.212013
0.212012
0.212011
0.212012
0.212012
0.212012
0.212012
0.212012
0.212012
0.212012
0.212012
0.212012
0.212012
0.212012
0.212012
0.212012
0.133563
0.133556
0.133555
0.133561
0.133568
0.133568
0.133562
0.133560
0.133565
0.133565
0.133560
0.133559
0.133565
0.133567
0.133561
0.133559
0.133564
0.133568
0.133565
0.133560
0.133560
0.133565
0.133567
0.133565
0.133561
0.133561
0.133565
0.133566
0.133564
0.133562
0.133562
0.133564
0.133565
0.133564
0.133563
0.133563
0.133564
0.133564
0.133564
0.133564
0.133564
0.133564
0.133564
0.133564
0.133564
0.133564
0.133564
0.055090
0.055097
0.055093
0.055085
0.055094
0.055105
0.055098
0.055082
0.055083
0.055100
0.055106
0.055093
0.055082
0.055088
0.055101
0.055102
0.055091
0.055085
0.055092
0.055100
0.055098
0.055091
0.055089
0.055094
0.055098
0.055096
0.055092
0.055091
0.055094
0.055096
0.055095
0.055093
0.055093
0.055094
0.055095
0.055094
0.055094
0.055093
0.055094
0.055094
0.055094
0.055094
0.055094
0.055094
0.055094
0.055094
0.055094
-0.023396
-0.023394
-0.023388
-0.023390
-0.023398
-0.023401
-0.023395
-0.023391
-0.023398
-0.023403
-0.023395
-0.023386
-0.023391
-0.023403
-0.023404
-0.023393
-0.023387
-0.023395
-0.023403
-0.023401
-0.023392
-0.023390
-0.023396
-0.023401
-0.023399
-0.023394
-0.023393
-0.023396
-0.023398
-0.023397
-0.023395
-0.023395
-0.023396
-0.023397
-0.023397
-0.023396
-0.023396
-0.023396
-0.023396
-0.023396
-0.023396
-0.023396
-0.023396
-0.023396
-0.023396
-0.023396
-0.023396
-0.101899
-0.101901
-0.101902
-0.101899
-0.101901
-0.101910
-0.101916
-0.101909
-0.101901
-0.101902
-0.101908
-0.101907
-0.101902
-0.101903
-0.101909
-0.101911
-0.101907
-0.101903
-0.101906
-0.101909
-0.101910
-0.101906
-0.101905
-0.101907
-0.101909
-0.101909
-0.101907
-0.101906
-0.101907
-0.101908
-0.101908
-0.101908
-0.101907
-0.101908
-0.101908
-0.101908
-0.101908
-0.101908
-0.101908
-0.101908
-0.101908
-0.101908
-0.101908
-0.101908
-0.101908
-0.101908
-0.101908

SCALARS temperature float 1 
LOOKUP_TABLE default 
0.279691
0.285492
0.286241
0.283834
0.278331
0.271419
0.272457
0.281541
0.291204
0.296235
0.297264
0.296740
0.295825
0.295407
0.296214
0.297726
0.298902
0.299790
0.301019
0.302388
0.303090
0.303237
0.303658
0.304412
0.305014
0.305341
0.305634
0.306051
0.306623
0.307123
0.307329
0.307368
0.307439
0.307751
0.308190
0.308471
0.308445
0.308354
0.308561
0.308930
0.309136
0.309188
0.309239
0.309327
0.309415
0.309514
0.309672
0.161666
0.168486
0.170158
0.157708
0.132507
0.113876
0.113842
0.128046
0.143972
0.152369
0.152023
0.146870
0.141819
0.139299
0.139106
0.139546
0.139897
0.140828
0.142228
0.142809
0.142538
0.142308
0.142238
0.142242
0.142361
0.142305
0.142123
0.142460
0.142999
0.143153
0.143080
0.142813
0.142553
0.142670
0.143151
0.143400
0.143152
0.142780
0.142792
0.143218
0.143592
0.143598
0.143392
0.143240
0.143133
0.143070
0.143165
0.036575
0.044435
0.048890
0.031671
-0.000865
-0.024907
-0.025819
-0.009071
0.010270
0.020747
0.020043
0.012909
0.005601
0.001827
0.001223
0.001355
0.001431
0.002132
0.003180
0.003641
0.003211
0.002298
0.001714
0.001706
0.001606
0.001071
0.000702
0.000919
0.001293
0.001467
0.001185
0.000588
0.000177
0.000288
0.000736
0.000896
0.000510
-0.000046
-0.000057
0.000449
0.000786
0.000686
0.000414
0.000162
-0.000113
-0.000285
-0.000259
-0.108159
-0.099847
-0.094188
-0.108013
-0.135595
-0.156260
-0.158264
-0.144788
-0.128110
-0.119317
-0.120672
-0.127566
-0.133879
-0.137033
-0.138016
-0.138334
-0.138468
-0.138181
-0.137527
-0.137400
-0.138222
-0.139150
-0.139624
-0.139940
-0.140347
-0.140865
-0.141272
-0.141313
-0.141059
-0.141082
-0.141472
-0.141969
-0.142371
-0.142429
-0.142178
-0.142032
-0.142411
-0.142915
-0.142990
-0.142656
-0.142369
-0.142457
-0.142763
-0.143076
-0.143337
-0.143565
-0.143592
-0.287122
-0.282938
-0.279035
-0.285800
-0.298700
-0.307758
-0.308888
-0.303270
-0.295822
-0.291604
-0.292620
-0.296328
-0.299750
-0.301639
-0.302256
-0.302673
-0.303308
-0.303617
-0.303537
-0.303723
-0.304433
-0.305214
-0.305689
-0.305963
-0.306342
-0.306852
-0.307252
-0.307384
-0.307409
-0.307551
-0.307865
-0.308234
-0.308494
-0.308590
-0.308560
-0.308608
-0.308851
-0.309113
-0.309192
-0.309098
-0.309025
-0.309124
-0.309307
-0.309507
-0.309721
-0.309889
-0.309959


SCALARS Species_1 float 1 
LOOKUP_TABLE default 
0.000000
0.000000
0.000000
0.000000
0.000000
0.000000
0.000000
0.000000
0.000000
0.000000
0.000000
0.000000
0.000000
0.000000
0.000000
0.000000
0.000000
0.000000
0.000000
0.000000
0.000000
0.000000
0.000000
0.000000
0.000000
0.000000
0.000000
0.000000
0.000000
0.000000
0.000000
0.000000
0.000000
0.000000
0.000000
0.000000
0.000000
0.000000
0.000000
0.000000
0.000000
0.000000
0.000000
0.000000
0.000000
0.000000
0.000000
0.000000
0.000000
0.000000
0.000000
0.000000
0.000000
0.000000
0.000000
0.000000
0.000000
0.000000
0.000000
0.000000
0.000000
0.000000
0.000000
0.000000
0.000000
0.000000
0.000000
0.000000
0.000000
0.000000
0.000000
0.000000
0.000000
0.000000
0.000000
0.000000
0.000000
0.000000
0.000000
0.000000
0.000000
0.000000
0.000000
0.000000
0.000000
0.000000
0.000000
0.000000
0.000000
0.000000
0.000000
0.000000
0.000000
0.000000
0.000000
0.000000
0.000000
0.000000
0.000000
0.000000
0.000000
0.000000
0.000000
0.000000
0.000000
0.000000
0.000000
0.000000
0.000000
0.000000
0.000000
0.000000
0.000000
0.000000
0.000000
0.000000
0.000000
0.000000
0.000000
0.000000
0.000000
0.000000
0.000000
0.000000
0.000000
0.000000
0.000000
0.000000
0.000000
0.000000
0.000000
0.000000
0.000000
0.000000
0.000000
0.000000
0.000000
0.000000
0.000000
0.000000
0.000000
0.000000
0.000000
0.000000
0.000000
0.000000
0.000000
0.000000
0.000000
0.000000
0.000000
0.000000
0.000000
0.000000
0.000000
0.000000
0.000000
0.000000
0.000000
0.000000
0.000000
0.000000
0.000000
0.000000
0.000000
0.000000
0.000000
0.000000
0.000000
0.000000
0.000000
0.000000
0.000000
0.000000
0.000000
0.000000
0.000000
0.000000
0.000000
0.000000
0.000000
0.000000
0.000000
0.000000
0.000000
0.000000
0.000000
0.000000
0.000000
0.000000
0.000000
0.000000
0.000000
0.000000
0.000000
0.000000
0.000000
0.000000
0.000000
0.000000
0.000000
0.000000
0.000000
0.000000
0.000000
0.000000
0.000000
0.000000
0.000000
0.000000
0.000000
0.000000
0.000000
0.000000
0.000000
0.000000
0.000000
0.000000
0.000000
0.000000
0.000000
0.000000
0.000000
0.000000
0.000000
0.000000
0.000000
0.000000
0.000000
0.000000
0.000000
0.000000
0.000000
0.000000
0.000000


SCALARS Species_2 float 1 
LOOKUP_TABLE default 
0.000000
0.000000
0.000000
0.000000
0.000000
0.000000
0.000000
0.000000
0.000000
0.000000
0.000000
0.000000
0.000000
0.000000
0.000000
0.000000
0.000000
0.000000
0.000000
0.000000
0.000000
0.000000
0.000000
0.000000
0.000000
0.000000
0.000000
0.000000
0.000000
0.000000
0.000000
0.000000
0.000000
0.000000
0.000000
0.000000
0.000000
0.000000
0.000000
0.000000
0.000000
0.000000
0.000000
0.000000
0.000000
0.000000
0.000000
0.000000
0.000000
0.000000
0.000000
0.000000
0.000000
0.000000
0.000000
0.000000
0.000000
0.000000
0.000000
0.000000
0.000000
0.000000
0.000000
0.000000
0.000000
0.000000
0.000000
0.000000
0.000000
0.000000
0.000000
0.000000
0.000000
0.000000
0.000000
0.000000
0.000000
0.000000
0.000000
0.000000
0.000000
0.000000
0.000000
0.000000
0.000000
0.000000
0.000000
0.000000
0.000000
0.000000
0.000000
0.000000
0.000000
0.000000
0.000000
0.000000
0.000000
0.000000
0.000000
0.000000
0.000000
0.000000
0.000000
0.000000
0.000000
0.000000
0.000000
0.000000
0.000000
0.000000
0.000000
0.000000
0.000000
0.000000
0.000000
0.000000
0.000000
0.000000
0.000000
0.000000
0.000000
0.000000
0.000000
0.000000
0.000000
0.000000
0.000000
0.000000
0.000000
0.000000
0.000000
0.000000
0.000000
0.000000
0.000000
0.000000
0.000000
0.000000
0.000000
0.000000
0.000000
0.000000
0.000000
0.000000
0.000000
0.000000
0.000000
0.000000
0.000000
0.000000
0.000000
0.000000
0.000000
0.000000
0.000000
0.000000
0.000000
0.000000
0.000000
0.000000
0.000000
0.000000
0.000000
0.000000
0.000000
0.000000
0.000000
0.000000
0.000000
0.000000
0.000000
0.000000
0.000000
0.000000
0.000000
0.000000
0.000000
0.000000
0.000000
0.000000
0.000000
0.000000
0.000000
0.000000
0.000000
0.000000
0.000000
0.000000
0.000000
0.000000
0.000000
0.000000
0.000000
0.000000
0.000000
0.000000
0.000000
0.000000
0.000000
0.000000
0.000000
0.000000
0.000000
0.000000
0.000000
0.000000
0.000000
0.000000
0.000000
0.000000
0.000000
0.000000
0.000000
0.000000
0.000000
0.000000
0.000000
0.000000
0.000000
0.000000
0.000000
0.000000
0.000000
0.000000
0.000000
0.000000
0.000000
0.000000
0.000000
0.000000
0.000000
0.000000
0.000000
0.000000
0.000000


SCALARS Species_3 float 1 
LOOKUP_TABLE default 
0.000000
0.000000
0.000000
0.000000
0.000000
0.000000
0.000000
0.000000
0.000000
0.000000
0.000000
0.000000
0.000000
0.000000
0.000000
0.000000
0.000000
0.000000
0.000000
0.000000
0.000000
0.000000
0.000000
0.000000
0.000000
0.000000
0.000000
0.000000
0.000000
0.000000
0.000000
0.000000
0.000000
0.000000
0.000000
0.000000
0.000000
0.000000
0.000000
0.000000
0.000000
0.000000
0.000000
0.000000
0.000000
0.000000
0.000000
0.000000
0.000000
0.000000
0.000000
0.000000
0.000000
0.000000
0.000000
0.000000
0.000000
0.000000
0.000000
0.000000
0.000000
0.000000
0.000000
0.000000
0.000000
0.000000
0.000000
0.000000
0.000000
0.000000
0.000000
0.000000
0.000000
0.000000
0.000000
0.000000
0.000000
0.000000
0.000000
0.000000
0.000000
0.000000
0.000000
0.000000
0.000000
0.000000
0.000000
0.000000
0.000000
0.000000
0.000000
0.000000
0.000000
0.000000
0.000000
0.000000
0.000000
0.000000
0.000000
0.000000
0.000000
0.000000
0.000000
0.000000
0.000000
0.000000
0.000000
0.000000
0.000000
0.000000
0.000000
0.000000
0.000000
0.000000
0.000000
0.000000
0.000000
0.000000
0.000000
0.000000
0.000000
0.000000
0.000000
0.000000
0.000000
0.000000
0.000000
0.000000
0.000000
0.000000
0.000000
0.000000
0.000000
0.000000
0.000000
0.000000
0.000000
0.000000
0.000000
0.000000
0.000000
0.000000
0.000000
0.000000
0.000000
0.000000
0.000000
0.000000
0.000000
0.000000
0.000000
0.000000
0.000000
0.000000
0.000000
0.000000
0.000000
0.000000
0.000000
0.000000
0.000000
0.000000
0.000000
0.000000
0.000000
0.000000
0.000000
0.000000
0.000000
0.000000
0.000000
0.000000
0.000000
0.000000
0.000000
0.000000
0.000000
0.000000
0.000000
0.000000
0.000000
0.000000
0.000000
0.000000
0.000000
0.000000
0.000000
0.000000
0.000000
0.000000
0.000000
0.000000
0.000000
0.000000
0.000000
0.000000
0.000000
0.000000
0.000000
0.000000
0.000000
0.000000
0.000000
0.000000
0.000000
0.000000
0.000000
0.000000
0.000000
0.000000
0.000000
0.000000
0.000000
0.000000
0.000000
0.000000
0.000000
0.000000
0.000000
0.000000
0.000000
0.000000
0.000000
0.000000
0.000000
0.000000
0.000000
0.000000
0.000000
0.000000
0.000000
0.000000
0.000000
0.000000
0.000000


SCALARS Species_4 float 1 
LOOKUP_TABLE default 
0.000000
0.000000
0.000000
0.000000
0.000000
0.000000
0.000000
0.000000
0.000000
0.000000
0.000000
0.000000
0.000000
0.000000
0.000000
0.000000
0.000000
0.000000
0.000000
0.000000
0.000000
0.000000
0.000000
0.000000
0.000000
0.000000
0.000000
0.000000
0.000000
0.000000
0.000000
0.000000
0.000000
0.000000
0.000000
0.000000
0.000000
0.000000
0.000000
0.000000
0.000000
0.000000
0.000000
0.000000
0.000000
0.000000
0.000000
0.000000
0.000000
0.000000
0.000000
0.000000
0.000000
0.000000
0.000000
0.000000
0.000000
0.000000
0.000000
0.000000
0.000000
0.000000
0.000000
0.000000
0.000000
0.000000
0.000000
0.000000
0.000000
0.000000
0.000000
0.000000
0.000000
0.000000
0.000000
0.000000
0.000000
0.000000
0.000000
0.000000
0.000000
0.000000
0.000000
0.000000
0.000000
0.000000
0.000000
0.000000
0.000000
0.000000
0.000000
0.000000
0.000000
0.000000
0.000000
0.000000
0.000000
0.000000
0.000000
0.000000
0.000000
0.000000
0.000000
0.000000
0.000000
0.000000
0.000000
0.000000
0.000000
0.000000
0.000000
0.000000
0.000000
0.000000
0.000000
0.000000
0.000000
0.000000
0.000000
0.000000
0.000000
0.000000
0.000000
0.000000
0.000000
0.000000
0.000000
0.000000
0.000000
0.000000
0.000000
0.000000
0.000000
0.000000
0.000000
0.000000
0.000000
0.000000
0.000000
0.000000
0.000000
0.000000
0.000000
0.000000
0.000000
0.000000
0.000000
0.000000
0.000000
0.000000
0.000000
0.000000
0.000000
0.000000
0.000000
0.000000
0.000000
0.000000
0.000000
0.000000
0.000000
0.000000
0.000000
0.000000
0.000000
0.000000
0.000000
0.000000
0.000000
0.000000
0.000000
0.000000
0.000000
0.000000
0.000000
0.000000
0.000000
0.000000
0.000000
0.000000
0.000000
0.000000
0.000000
0.000000
0.000000
0.000000
0.000000
0.000000
0.000000
0.000000
0.000000
0.000000
0.000000
0.000000
0.000000
0.000000
0.000000
0.000000
0.000000
0.000000
0.000000
0.000000
0.000000
0.000000
0.000000
0.000000
0.000000
0.000000
0.000000
0.000000
0.000000
0.000000
0.000000
0.000000
0.000000
0.000000
0.000000
0.000000
0.000000
0.000000
0.000000
0.000000
0.000000
0.000000
0.000000
0.000000
0.000000
0.000000
0.000000
0.000000
0.000000
0.000000
0.000000
0.000000
0.000000
