# vtk DataFile Version 2.0
generated by CFD-lab course output (written by Tobias Neckel) 
ASCII

DATASET STRUCTURED_GRID
DIMENSIONS  48 6 1 
POINTS 288 float

0.000000 0.000000 0
0.202128 0.000000 0
0.404255 0.000000 0
0.606383 0.000000 0
0.808511 0.000000 0
1.010638 0.000000 0
1.212766 0.000000 0
1.414894 0.000000 0
1.617021 0.000000 0
1.819149 0.000000 0
2.021277 0.000000 0
2.223404 0.000000 0
2.425532 0.000000 0
2.627660 0.000000 0
2.829787 0.000000 0
3.031915 0.000000 0
3.234043 0.000000 0
3.436170 0.000000 0
3.638298 0.000000 0
3.840426 0.000000 0
4.042553 0.000000 0
4.244681 0.000000 0
4.446809 0.000000 0
4.648936 0.000000 0
4.851064 0.000000 0
5.053191 0.000000 0
5.255319 0.000000 0
5.457447 0.000000 0
5.659574 0.000000 0
5.861702 0.000000 0
6.063830 0.000000 0
6.265957 0.000000 0
6.468085 0.000000 0
6.670213 0.000000 0
6.872340 0.000000 0
7.074468 0.000000 0
7.276596 0.000000 0
7.478723 0.000000 0
7.680851 0.000000 0
7.882979 0.000000 0
8.085106 0.000000 0
8.287234 0.000000 0
8.489362 0.000000 0
8.691489 0.000000 0
8.893617 0.000000 0
9.095745 0.000000 0
9.297872 0.000000 0
9.500000 0.000000 0
0.000000 0.200000 0
0.202128 0.200000 0
0.404255 0.200000 0
0.606383 0.200000 0
0.808511 0.200000 0
1.010638 0.200000 0
1.212766 0.200000 0
1.414894 0.200000 0
1.617021 0.200000 0
1.819149 0.200000 0
2.021277 0.200000 0
2.223404 0.200000 0
2.425532 0.200000 0
2.627660 0.200000 0
2.829787 0.200000 0
3.031915 0.200000 0
3.234043 0.200000 0
3.436170 0.200000 0
3.638298 0.200000 0
3.840426 0.200000 0
4.042553 0.200000 0
4.244681 0.200000 0
4.446809 0.200000 0
4.648936 0.200000 0
4.851064 0.200000 0
5.053191 0.200000 0
5.255319 0.200000 0
5.457447 0.200000 0
5.659574 0.200000 0
5.861702 0.200000 0
6.063830 0.200000 0
6.265957 0.200000 0
6.468085 0.200000 0
6.670213 0.200000 0
6.872340 0.200000 0
7.074468 0.200000 0
7.276596 0.200000 0
7.478723 0.200000 0
7.680851 0.200000 0
7.882979 0.200000 0
8.085106 0.200000 0
8.287234 0.200000 0
8.489362 0.200000 0
8.691489 0.200000 0
8.893617 0.200000 0
9.095745 0.200000 0
9.297872 0.200000 0
9.500000 0.200000 0
0.000000 0.400000 0
0.202128 0.400000 0
0.404255 0.400000 0
0.606383 0.400000 0
0.808511 0.400000 0
1.010638 0.400000 0
1.212766 0.400000 0
1.414894 0.400000 0
1.617021 0.400000 0
1.819149 0.400000 0
2.021277 0.400000 0
2.223404 0.400000 0
2.425532 0.400000 0
2.627660 0.400000 0
2.829787 0.400000 0
3.031915 0.400000 0
3.234043 0.400000 0
3.436170 0.400000 0
3.638298 0.400000 0
3.840426 0.400000 0
4.042553 0.400000 0
4.244681 0.400000 0
4.446809 0.400000 0
4.648936 0.400000 0
4.851064 0.400000 0
5.053191 0.400000 0
5.255319 0.400000 0
5.457447 0.400000 0
5.659574 0.400000 0
5.861702 0.400000 0
6.063830 0.400000 0
6.265957 0.400000 0
6.468085 0.400000 0
6.670213 0.400000 0
6.872340 0.400000 0
7.074468 0.400000 0
7.276596 0.400000 0
7.478723 0.400000 0
7.680851 0.400000 0
7.882979 0.400000 0
8.085106 0.400000 0
8.287234 0.400000 0
8.489362 0.400000 0
8.691489 0.400000 0
8.893617 0.400000 0
9.095745 0.400000 0
9.297872 0.400000 0
9.500000 0.400000 0
0.000000 0.600000 0
0.202128 0.600000 0
0.404255 0.600000 0
0.606383 0.600000 0
0.808511 0.600000 0
1.010638 0.600000 0
1.212766 0.600000 0
1.414894 0.600000 0
1.617021 0.600000 0
1.819149 0.600000 0
2.021277 0.600000 0
2.223404 0.600000 0
2.425532 0.600000 0
2.627660 0.600000 0
2.829787 0.600000 0
3.031915 0.600000 0
3.234043 0.600000 0
3.436170 0.600000 0
3.638298 0.600000 0
3.840426 0.600000 0
4.042553 0.600000 0
4.244681 0.600000 0
4.446809 0.600000 0
4.648936 0.600000 0
4.851064 0.600000 0
5.053191 0.600000 0
5.255319 0.600000 0
5.457447 0.600000 0
5.659574 0.600000 0
5.861702 0.600000 0
6.063830 0.600000 0
6.265957 0.600000 0
6.468085 0.600000 0
6.670213 0.600000 0
6.872340 0.600000 0
7.074468 0.600000 0
7.276596 0.600000 0
7.478723 0.600000 0
7.680851 0.600000 0
7.882979 0.600000 0
8.085106 0.600000 0
8.287234 0.600000 0
8.489362 0.600000 0
8.691489 0.600000 0
8.893617 0.600000 0
9.095745 0.600000 0
9.297872 0.600000 0
9.500000 0.600000 0
0.000000 0.800000 0
0.202128 0.800000 0
0.404255 0.800000 0
0.606383 0.800000 0
0.808511 0.800000 0
1.010638 0.800000 0
1.212766 0.800000 0
1.414894 0.800000 0
1.617021 0.800000 0
1.819149 0.800000 0
2.021277 0.800000 0
2.223404 0.800000 0
2.425532 0.800000 0
2.627660 0.800000 0
2.829787 0.800000 0
3.031915 0.800000 0
3.234043 0.800000 0
3.436170 0.800000 0
3.638298 0.800000 0
3.840426 0.800000 0
4.042553 0.800000 0
4.244681 0.800000 0
4.446809 0.800000 0
4.648936 0.800000 0
4.851064 0.800000 0
5.053191 0.800000 0
5.255319 0.800000 0
5.457447 0.800000 0
5.659574 0.800000 0
5.861702 0.800000 0
6.063830 0.800000 0
6.265957 0.800000 0
6.468085 0.800000 0
6.670213 0.800000 0
6.872340 0.800000 0
7.074468 0.800000 0
7.276596 0.800000 0
7.478723 0.800000 0
7.680851 0.800000 0
7.882979 0.800000 0
8.085106 0.800000 0
8.287234 0.800000 0
8.489362 0.800000 0
8.691489 0.800000 0
8.893617 0.800000 0
9.095745 0.800000 0
9.297872 0.800000 0
9.500000 0.800000 0
0.000000 1.000000 0
0.202128 1.000000 0
0.404255 1.000000 0
0.606383 1.000000 0
0.808511 1.000000 0
1.010638 1.000000 0
1.212766 1.000000 0
1.414894 1.000000 0
1.617021 1.000000 0
1.819149 1.000000 0
2.021277 1.000000 0
2.223404 1.000000 0
2.425532 1.000000 0
2.627660 1.000000 0
2.829787 1.000000 0
3.031915 1.000000 0
3.234043 1.000000 0
3.436170 1.000000 0
3.638298 1.000000 0
3.840426 1.000000 0
4.042553 1.000000 0
4.244681 1.000000 0
4.446809 1.000000 0
4.648936 1.000000 0
4.851064 1.000000 0
5.053191 1.000000 0
5.255319 1.000000 0
5.457447 1.000000 0
5.659574 1.000000 0
5.861702 1.000000 0
6.063830 1.000000 0
6.265957 1.000000 0
6.468085 1.000000 0
6.670213 1.000000 0
6.872340 1.000000 0
7.074468 1.000000 0
7.276596 1.000000 0
7.478723 1.000000 0
7.680851 1.000000 0
7.882979 1.000000 0
8.085106 1.000000 0
8.287234 1.000000 0
8.489362 1.000000 0
8.691489 1.000000 0
8.893617 1.000000 0
9.095745 1.000000 0
9.297872 1.000000 0
9.500000 1.000000 0
POINT_DATA 288 

VECTORS velocity float
0.000000 0.000000 0
-0.000036 0.000000 0
0.000040 0.000000 0
0.000007 0.000000 0
-0.000035 0.000000 0
-0.000007 0.000000 0
0.000024 0.000000 0
0.000015 0.000000 0
-0.000013 0.000000 0
-0.000017 0.000000 0
0.000004 0.000000 0
0.000014 0.000000 0
0.000002 0.000000 0
-0.000007 0.000000 0
-0.000004 0.000000 0
0.000003 0.000000 0
0.000005 0.000000 0
0.000000 0.000000 0
-0.000004 0.000000 0
-0.000001 0.000000 0
0.000002 0.000000 0
0.000002 0.000000 0
-0.000001 0.000000 0
-0.000002 0.000000 0
-0.000000 0.000000 0
0.000002 0.000000 0
0.000001 0.000000 0
-0.000001 0.000000 0
-0.000002 0.000000 0
0.000001 0.000000 0
0.000002 0.000000 0
-0.000000 0.000000 0
-0.000001 0.000000 0
-0.000000 0.000000 0
0.000001 0.000000 0
0.000000 0.000000 0
-0.000000 0.000000 0
-0.000000 0.000000 0
-0.000000 0.000000 0
0.000000 0.000000 0
0.000000 0.000000 0
-0.000000 0.000000 0
-0.000000 0.000000 0
0.000000 0.000000 0
0.000000 0.000000 0
-0.000000 0.000000 0
-0.000000 0.000000 0
0.000000 0.000000 0
0.000000 -0.000042 0
-0.000036 -0.000024 0
0.000049 0.000047 0
0.000008 0.000026 0
-0.000047 -0.000023 0
-0.000020 -0.000005 0
0.000026 0.000028 0
0.000027 0.000021 0
-0.000009 -0.000008 0
-0.000025 -0.000016 0
-0.000002 0.000001 0
0.000015 0.000012 0
0.000007 0.000003 0
-0.000005 -0.000005 0
-0.000008 -0.000004 0
-0.000000 0.000000 0
0.000006 0.000003 0
0.000003 0.000001 0
-0.000003 -0.000002 0
-0.000003 -0.000001 0
0.000001 0.000001 0
0.000003 0.000001 0
0.000001 -0.000000 0
-0.000002 -0.000001 0
-0.000002 -0.000000 0
0.000001 0.000000 0
0.000002 0.000000 0
-0.000000 -0.000000 0
-0.000002 -0.000000 0
-0.000000 0.000001 0
0.000001 -0.000000 0
0.000000 -0.000001 0
-0.000000 0.000000 0
-0.000000 0.000001 0
-0.000000 0.000000 0
0.000000 -0.000001 0
0.000000 -0.000001 0
0.000000 0.000000 0
-0.000000 0.000001 0
-0.000000 -0.000000 0
0.000000 -0.000001 0
0.000000 -0.000000 0
-0.000000 0.000000 0
-0.000000 0.000000 0
0.000000 -0.000000 0
0.000000 -0.000000 0
-0.000000 -0.000000 0
0.000000 0.000000 0
0.000000 0.000007 0
0.000048 0.000013 0
0.000043 0.000022 0
-0.000045 -0.000021 0
-0.000033 -0.000021 0
0.000018 0.000011 0
0.000027 0.000020 0
-0.000002 0.000001 0
-0.000023 -0.000015 0
-0.000008 -0.000005 0
0.000013 0.000011 0
0.000007 0.000008 0
-0.000004 -0.000003 0
-0.000005 -0.000006 0
-0.000002 -0.000001 0
0.000004 0.000005 0
0.000003 0.000003 0
-0.000002 -0.000002 0
-0.000003 -0.000004 0
0.000000 0.000000 0
0.000002 0.000003 0
0.000000 0.000001 0
-0.000001 -0.000002 0
-0.000001 -0.000003 0
0.000000 0.000001 0
0.000001 0.000003 0
-0.000000 0.000001 0
-0.000001 -0.000002 0
0.000000 -0.000002 0
0.000001 0.000001 0
-0.000001 0.000002 0
-0.000001 -0.000000 0
0.000001 -0.000002 0
0.000001 -0.000000 0
-0.000001 0.000001 0
-0.000001 0.000001 0
0.000000 -0.000000 0
0.000001 -0.000001 0
0.000000 -0.000000 0
-0.000000 0.000001 0
-0.000000 0.000001 0
0.000000 -0.000000 0
0.000000 -0.000001 0
-0.000000 0.000000 0
-0.000000 0.000000 0
0.000000 0.000000 0
0.000000 -0.000000 0
0.000000 -0.000000 0
0.000000 0.000017 0
0.000078 0.000013 0
0.000004 -0.000010 0
-0.000051 -0.000017 0
-0.000005 0.000001 0
0.000031 0.000006 0
0.000018 -0.000001 0
-0.000015 -0.000006 0
-0.000021 -0.000003 0
0.000005 0.000003 0
0.000016 0.000002 0
0.000000 -0.000001 0
-0.000007 -0.000001 0
-0.000004 0.000000 0
0.000002 0.000000 0
0.000006 -0.000000 0
0.000000 0.000000 0
-0.000004 0.000000 0
-0.000002 0.000000 0
0.000003 -0.000000 0
0.000003 -0.000001 0
-0.000001 0.000000 0
-0.000002 0.000001 0
-0.000001 0.000000 0
0.000002 -0.000001 0
0.000002 -0.000001 0
-0.000002 0.000000 0
-0.000002 0.000001 0
0.000001 0.000000 0
0.000002 -0.000001 0
-0.000001 -0.000001 0
-0.000001 0.000001 0
0.000000 0.000001 0
0.000001 -0.000001 0
0.000000 -0.000001 0
-0.000000 -0.000000 0
-0.000000 0.000001 0
-0.000000 0.000000 0
0.000000 -0.000000 0
0.000000 -0.000001 0
-0.000000 0.000000 0
-0.000000 0.000001 0
0.000000 0.000000 0
0.000000 -0.000000 0
-0.000000 -0.000000 0
-0.000000 0.000000 0
0.000000 0.000000 0
0.000000 0.000000 0
0.000000 0.000006 0
0.000059 0.000003 0
-0.000014 -0.000007 0
-0.000035 -0.000002 0
0.000005 0.000003 0
0.000026 0.000002 0
0.000011 -0.000003 0
-0.000015 -0.000004 0
-0.000015 -0.000000 0
0.000007 0.000003 0
0.000011 0.000001 0
-0.000000 -0.000002 0
-0.000005 -0.000001 0
-0.000004 0.000001 0
0.000002 0.000001 0
0.000005 0.000000 0
0.000000 -0.000001 0
-0.000003 -0.000001 0
-0.000001 0.000001 0
0.000002 0.000001 0
0.000002 -0.000000 0
-0.000000 -0.000001 0
-0.000002 -0.000000 0
-0.000001 0.000001 0
0.000002 0.000001 0
0.000001 -0.000000 0
-0.000001 -0.000001 0
-0.000001 -0.000000 0
0.000000 0.000001 0
0.000001 0.000000 0
0.000000 -0.000000 0
-0.000000 -0.000001 0
-0.000000 0.000000 0
-0.000000 0.000001 0
0.000000 0.000000 0
0.000000 -0.000000 0
-0.000000 -0.000000 0
-0.000000 0.000000 0
-0.000000 0.000000 0
0.000000 0.000000 0
0.000000 -0.000000 0
-0.000000 -0.000000 0
-0.000000 0.000000 0
0.000000 0.000000 0
0.000000 -0.000000 0
-0.000000 -0.000000 0
-0.000000 0.000000 0
0.000000 0.000000 0
0.000000 0.000000 0
0.000013 0.000000 0
-0.000019 0.000000 0
-0.000006 0.000000 0
0.000011 0.000000 0
0.000009 0.000000 0
-0.000002 0.000000 0
-0.000008 0.000000 0
-0.000001 0.000000 0
0.000006 0.000000 0
0.000002 0.000000 0
-0.000002 0.000000 0
-0.000002 0.000000 0
-0.000001 0.000000 0
0.000002 0.000000 0
0.000001 0.000000 0
-0.000001 0.000000 0
-0.000001 0.000000 0
0.000000 0.000000 0
0.000001 0.000000 0
0.000000 0.000000 0
-0.000000 0.000000 0
-0.000001 0.000000 0
-0.000000 0.000000 0
0.000001 0.000000 0
0.000000 0.000000 0
-0.000000 0.000000 0
-0.000000 0.000000 0
-0.000000 0.000000 0
-0.000000 0.000000 0
0.000000 0.000000 0
0.000000 0.000000 0
-0.000000 0.000000 0
-0.000000 0.000000 0
0.000000 0.000000 0
0.000000 0.000000 0
0.000000 0.000000 0
-0.000000 0.000000 0
-0.000000 0.000000 0
0.000000 0.000000 0
0.000000 0.000000 0
0.000000 0.000000 0
-0.000000 0.000000 0
-0.000000 0.000000 0
0.000000 0.000000 0
-0.000000 0.000000 0
-0.000000 0.000000 0
0.000000 0.000000 0

CELL_DATA 235 
SCALARS pressure float 1 
LOOKUP_TABLE default 
0.211981
0.212060
0.212009
0.211971
0.212030
0.212064
0.212027
0.211985
0.211997
0.212035
0.212039
0.212013
0.212002
0.212012
0.212023
0.212022
0.212013
0.212010
0.212016
0.212020
0.212018
0.212013
0.212013
0.212017
0.212019
0.212016
0.212013
0.212014
0.212018
0.212017
0.212014
0.212014
0.212016
0.212017
0.212016
0.212015
0.212015
0.212016
0.212016
0.212016
0.212015
0.212015
0.212016
0.212016
0.212016
0.212016
0.212016
0.133605
0.133557
0.133493
0.133550
0.133595
0.133570
0.133535
0.133536
0.133565
0.133578
0.133562
0.133551
0.133555
0.133561
0.133565
0.133563
0.133557
0.133557
0.133560
0.133562
0.133561
0.133559
0.133558
0.133559
0.133562
0.133561
0.133559
0.133559
0.133559
0.133561
0.133562
0.133560
0.133558
0.133559
0.133561
0.133562
0.133560
0.133559
0.133560
0.133561
0.133561
0.133559
0.133559
0.133560
0.133561
0.133560
0.133560
0.055144
0.055035
0.055048
0.055126
0.055115
0.055065
0.055053
0.055086
0.055110
0.055092
0.055070
0.055079
0.055093
0.055094
0.055086
0.055080
0.055085
0.055091
0.055090
0.055084
0.055083
0.055088
0.055090
0.055088
0.055084
0.055084
0.055089
0.055090
0.055086
0.055083
0.055086
0.055090
0.055088
0.055084
0.055085
0.055087
0.055088
0.055087
0.055085
0.055086
0.055087
0.055088
0.055086
0.055086
0.055087
0.055087
0.055087
-0.023372
-0.023443
-0.023403
-0.023362
-0.023383
-0.023417
-0.023423
-0.023397
-0.023381
-0.023397
-0.023411
-0.023407
-0.023397
-0.023392
-0.023398
-0.023406
-0.023403
-0.023397
-0.023396
-0.023400
-0.023403
-0.023402
-0.023397
-0.023397
-0.023401
-0.023403
-0.023400
-0.023398
-0.023398
-0.023401
-0.023402
-0.023400
-0.023399
-0.023399
-0.023401
-0.023401
-0.023400
-0.023399
-0.023399
-0.023401
-0.023401
-0.023400
-0.023399
-0.023400
-0.023400
-0.023400
-0.023400
-0.101892
-0.101933
-0.101900
-0.101874
-0.101892
-0.101917
-0.101919
-0.101900
-0.101891
-0.101903
-0.101911
-0.101908
-0.101902
-0.101899
-0.101903
-0.101907
-0.101906
-0.101902
-0.101902
-0.101904
-0.101905
-0.101905
-0.101903
-0.101903
-0.101904
-0.101905
-0.101904
-0.101904
-0.101904
-0.101904
-0.101904
-0.101905
-0.101904
-0.101904
-0.101904
-0.101905
-0.101905
-0.101904
-0.101904
-0.101904
-0.101905
-0.101904
-0.101904
-0.101904
-0.101904
-0.101904
-0.101904

SCALARS temperature float 1 
LOOKUP_TABLE default 
0.227245
0.229971
0.230128
0.231589
0.235159
0.236971
0.237933
0.239099
0.240733
0.242126
0.242772
0.243370
0.244477
0.245643
0.246205
0.246479
0.247159
0.248107
0.248764
0.249067
0.249343
0.249836
0.250506
0.250989
0.251112
0.251282
0.251694
0.252096
0.252376
0.252526
0.252610
0.252791
0.253068
0.253273
0.253362
0.253429
0.253522
0.253663
0.253792
0.253865
0.253904
0.253985
0.254093
0.254179
0.254269
0.254378
0.254471
0.107490
0.107854
0.107734
0.105143
0.100727
0.099097
0.098496
0.097902
0.097357
0.097008
0.096680
0.096293
0.095949
0.095554
0.095305
0.095222
0.094895
0.094520
0.094437
0.094430
0.094274
0.094101
0.093881
0.093689
0.093775
0.093780
0.093513
0.093361
0.093353
0.093337
0.093324
0.093252
0.093090
0.093028
0.093086
0.093078
0.092998
0.092930
0.092921
0.092911
0.092906
0.092860
0.092811
0.092806
0.092786
0.092727
0.092705
0.014282
0.013234
0.013202
0.010442
0.006680
0.004904
0.004428
0.003950
0.003732
0.003734
0.003427
0.002909
0.002548
0.002432
0.002379
0.002025
0.001628
0.001543
0.001560
0.001394
0.001183
0.001042
0.000980
0.000981
0.000856
0.000650
0.000602
0.000645
0.000589
0.000488
0.000424
0.000366
0.000350
0.000341
0.000297
0.000254
0.000227
0.000198
0.000180
0.000189
0.000165
0.000119
0.000103
0.000101
0.000062
0.000035
0.000007
-0.084495
-0.084931
-0.084497
-0.086599
-0.089536
-0.090430
-0.090368
-0.090641
-0.090786
-0.090588
-0.090539
-0.090873
-0.091261
-0.091317
-0.091275
-0.091377
-0.091645
-0.091916
-0.091903
-0.091763
-0.091873
-0.092113
-0.092195
-0.092189
-0.092173
-0.092194
-0.092325
-0.092439
-0.092397
-0.092356
-0.092403
-0.092459
-0.092520
-0.092549
-0.092517
-0.092487
-0.092545
-0.092605
-0.092590
-0.092568
-0.092575
-0.092603
-0.092629
-0.092637
-0.092634
-0.092678
-0.092691
-0.246357
-0.246751
-0.245577
-0.246634
-0.247949
-0.248081
-0.248054
-0.248167
-0.248152
-0.248212
-0.248556
-0.248932
-0.249199
-0.249534
-0.249872
-0.250220
-0.250571
-0.250829
-0.251114
-0.251459
-0.251719
-0.251901
-0.252125
-0.252375
-0.252621
-0.252815
-0.252930
-0.253052
-0.253234
-0.253405
-0.253505
-0.253581
-0.253671
-0.253771
-0.253872
-0.253941
-0.253976
-0.254042
-0.254113
-0.254144
-0.254177
-0.254231
-0.254288
-0.254343
-0.254421
-0.254496
-0.254552


SCALARS Species_1 float 1 
LOOKUP_TABLE default 
0.000000
0.000000
0.000000
0.000000
0.000000
0.000000
0.000000
0.000000
0.000000
0.000000
0.000000
0.000000
0.000000
0.000000
0.000000
0.000000
0.000000
0.000000
0.000000
0.000000
0.000000
0.000000
0.000000
0.000000
0.000000
0.000000
0.000000
0.000000
0.000000
0.000000
0.000000
0.000000
0.000000
0.000000
0.000000
0.000000
0.000000
0.000000
0.000000
0.000000
0.000000
0.000000
0.000000
0.000000
0.000000
0.000000
0.000000
0.000000
0.000000
0.000000
0.000000
0.000000
0.000000
0.000000
0.000000
0.000000
0.000000
0.000000
0.000000
0.000000
0.000000
0.000000
0.000000
0.000000
0.000000
0.000000
0.000000
0.000000
0.000000
0.000000
0.000000
0.000000
0.000000
0.000000
0.000000
0.000000
0.000000
0.000000
0.000000
0.000000
0.000000
0.000000
0.000000
0.000000
0.000000
0.000000
0.000000
0.000000
0.000000
0.000000
0.000000
0.000000
0.000000
0.000000
0.000000
0.000000
0.000000
0.000000
0.000000
0.000000
0.000000
0.000000
0.000000
0.000000
0.000000
0.000000
0.000000
0.000000
0.000000
0.000000
0.000000
0.000000
0.000000
0.000000
0.000000
0.000000
0.000000
0.000000
0.000000
0.000000
0.000000
0.000000
0.000000
0.000000
0.000000
0.000000
0.000000
0.000000
0.000000
0.000000
0.000000
0.000000
0.000000
0.000000
0.000000
0.000000
0.000000
0.000000
0.000000
0.000000
0.000000
0.000000
0.000000
0.000000
0.000000
0.000000
0.000000
0.000000
0.000000
0.000000
0.000000
0.000000
0.000000
0.000000
0.000000
0.000000
0.000000
0.000000
0.000000
0.000000
0.000000
0.000000
0.000000
0.000000
0.000000
0.000000
0.000000
0.000000
0.000000
0.000000
0.000000
0.000000
0.000000
0.000000
0.000000
0.000000
0.000000
0.000000
0.000000
0.000000
0.000000
0.000000
0.000000
0.000000
0.000000
0.000000
0.000000
0.000000
0.000000
0.000000
0.000000
0.000000
0.000000
0.000000
0.000000
0.000000
0.000000
0.000000
0.000000
0.000000
0.000000
0.000000
0.000000
0.000000
0.000000
0.000000
0.000000
0.000000
0.000000
0.000000
0.000000
0.000000
0.000000
0.000000
0.000000
0.000000
0.000000
0.000000
0.000000
0.000000
0.000000
0.000000
0.000000
0.000000
0.000000
0.000000
0.000000
0.000000
0.000000
0.000000
0.000000
0.000000
0.000000
0.000000
0.000000


SCALARS Species_2 float 1 
LOOKUP_TABLE default 
0.000000
0.000000
0.000000
0.000000
0.000000
0.000000
0.000000
0.000000
0.000000
0.000000
0.000000
0.000000
0.000000
0.000000
0.000000
0.000000
0.000000
0.000000
0.000000
0.000000
0.000000
0.000000
0.000000
0.000000
0.000000
0.000000
0.000000
0.000000
0.000000
0.000000
0.000000
0.000000
0.000000
0.000000
0.000000
0.000000
0.000000
0.000000
0.000000
0.000000
0.000000
0.000000
0.000000
0.000000
0.000000
0.000000
0.000000
0.000000
0.000000
0.000000
0.000000
0.000000
0.000000
0.000000
0.000000
0.000000
0.000000
0.000000
0.000000
0.000000
0.000000
0.000000
0.000000
0.000000
0.000000
0.000000
0.000000
0.000000
0.000000
0.000000
0.000000
0.000000
0.000000
0.000000
0.000000
0.000000
0.000000
0.000000
0.000000
0.000000
0.000000
0.000000
0.000000
0.000000
0.000000
0.000000
0.000000
0.000000
0.000000
0.000000
0.000000
0.000000
0.000000
0.000000
0.000000
0.000000
0.000000
0.000000
0.000000
0.000000
0.000000
0.000000
0.000000
0.000000
0.000000
0.000000
0.000000
0.000000
0.000000
0.000000
0.000000
0.000000
0.000000
0.000000
0.000000
0.000000
0.000000
0.000000
0.000000
0.000000
0.000000
0.000000
0.000000
0.000000
0.000000
0.000000
0.000000
0.000000
0.000000
0.000000
0.000000
0.000000
0.000000
0.000000
0.000000
0.000000
0.000000
0.000000
0.000000
0.000000
0.000000
0.000000
0.000000
0.000000
0.000000
0.000000
0.000000
0.000000
0.000000
0.000000
0.000000
0.000000
0.000000
0.000000
0.000000
0.000000
0.000000
0.000000
0.000000
0.000000
0.000000
0.000000
0.000000
0.000000
0.000000
0.000000
0.000000
0.000000
0.000000
0.000000
0.000000
0.000000
0.000000
0.000000
0.000000
0.000000
0.000000
0.000000
0.000000
0.000000
0.000000
0.000000
0.000000
0.000000
0.000000
0.000000
0.000000
0.000000
0.000000
0.000000
0.000000
0.000000
0.000000
0.000000
0.000000
0.000000
0.000000
0.000000
0.000000
0.000000
0.000000
0.000000
0.000000
0.000000
0.000000
0.000000
0.000000
0.000000
0.000000
0.000000
0.000000
0.000000
0.000000
0.000000
0.000000
0.000000
0.000000
0.000000
0.000000
0.000000
0.000000
0.000000
0.000000
0.000000
0.000000
0.000000
0.000000
0.000000
0.000000
0.000000
0.000000
0.000000
0.000000
0.000000
0.000000


SCALARS Species_3 float 1 
LOOKUP_TABLE default 
0.000000
0.000000
0.000000
0.000000
0.000000
0.000000
0.000000
0.000000
0.000000
0.000000
0.000000
0.000000
0.000000
0.000000
0.000000
0.000000
0.000000
0.000000
0.000000
0.000000
0.000000
0.000000
0.000000
0.000000
0.000000
0.000000
0.000000
0.000000
0.000000
0.000000
0.000000
0.000000
0.000000
0.000000
0.000000
0.000000
0.000000
0.000000
0.000000
0.000000
0.000000
0.000000
0.000000
0.000000
0.000000
0.000000
0.000000
0.000000
0.000000
0.000000
0.000000
0.000000
0.000000
0.000000
0.000000
0.000000
0.000000
0.000000
0.000000
0.000000
0.000000
0.000000
0.000000
0.000000
0.000000
0.000000
0.000000
0.000000
0.000000
0.000000
0.000000
0.000000
0.000000
0.000000
0.000000
0.000000
0.000000
0.000000
0.000000
0.000000
0.000000
0.000000
0.000000
0.000000
0.000000
0.000000
0.000000
0.000000
0.000000
0.000000
0.000000
0.000000
0.000000
0.000000
0.000000
0.000000
0.000000
0.000000
0.000000
0.000000
0.000000
0.000000
0.000000
0.000000
0.000000
0.000000
0.000000
0.000000
0.000000
0.000000
0.000000
0.000000
0.000000
0.000000
0.000000
0.000000
0.000000
0.000000
0.000000
0.000000
0.000000
0.000000
0.000000
0.000000
0.000000
0.000000
0.000000
0.000000
0.000000
0.000000
0.000000
0.000000
0.000000
0.000000
0.000000
0.000000
0.000000
0.000000
0.000000
0.000000
0.000000
0.000000
0.000000
0.000000
0.000000
0.000000
0.000000
0.000000
0.000000
0.000000
0.000000
0.000000
0.000000
0.000000
0.000000
0.000000
0.000000
0.000000
0.000000
0.000000
0.000000
0.000000
0.000000
0.000000
0.000000
0.000000
0.000000
0.000000
0.000000
0.000000
0.000000
0.000000
0.000000
0.000000
0.000000
0.000000
0.000000
0.000000
0.000000
0.000000
0.000000
0.000000
0.000000
0.000000
0.000000
0.000000
0.000000
0.000000
0.000000
0.000000
0.000000
0.000000
0.000000
0.000000
0.000000
0.000000
0.000000
0.000000
0.000000
0.000000
0.000000
0.000000
0.000000
0.000000
0.000000
0.000000
0.000000
0.000000
0.000000
0.000000
0.000000
0.000000
0.000000
0.000000
0.000000
0.000000
0.000000
0.000000
0.000000
0.000000
0.000000
0.000000
0.000000
0.000000
0.000000
0.000000
0.000000
0.000000
0.000000
0.000000
0.000000
0.000000
0.000000
0.000000
0.000000


SCALARS Species_4 float 1 
LOOKUP_TABLE default 
0.000000
0.000000
0.000000
0.000000
0.000000
0.000000
0.000000
0.000000
0.000000
0.000000
0.000000
0.000000
0.000000
0.000000
0.000000
0.000000
0.000000
0.000000
0.000000
0.000000
0.000000
0.000000
0.000000
0.000000
0.000000
0.000000
0.000000
0.000000
0.000000
0.000000
0.000000
0.000000
0.000000
0.000000
0.000000
0.000000
0.000000
0.000000
0.000000
0.000000
0.000000
0.000000
0.000000
0.000000
0.000000
0.000000
0.000000
0.000000
0.000000
0.000000
0.000000
0.000000
0.000000
0.000000
0.000000
0.000000
0.000000
0.000000
0.000000
0.000000
0.000000
0.000000
0.000000
0.000000
0.000000
0.000000
0.000000
0.000000
0.000000
0.000000
0.000000
0.000000
0.000000
0.000000
0.000000
0.000000
0.000000
0.000000
0.000000
0.000000
0.000000
0.000000
0.000000
0.000000
0.000000
0.000000
0.000000
0.000000
0.000000
0.000000
0.000000
0.000000
0.000000
0.000000
0.000000
0.000000
0.000000
0.000000
0.000000
0.000000
0.000000
0.000000
0.000000
0.000000
0.000000
0.000000
0.000000
0.000000
0.000000
0.000000
0.000000
0.000000
0.000000
0.000000
0.000000
0.000000
0.000000
0.000000
0.000000
0.000000
0.000000
0.000000
0.000000
0.000000
0.000000
0.000000
0.000000
0.000000
0.000000
0.000000
0.000000
0.000000
0.000000
0.000000
0.000000
0.000000
0.000000
0.000000
0.000000
0.000000
0.000000
0.000000
0.000000
0.000000
0.000000
0.000000
0.000000
0.000000
0.000000
0.000000
0.000000
0.000000
0.000000
0.000000
0.000000
0.000000
0.000000
0.000000
0.000000
0.000000
0.000000
0.000000
0.000000
0.000000
0.000000
0.000000
0.000000
0.000000
0.000000
0.000000
0.000000
0.000000
0.000000
0.000000
0.000000
0.000000
0.000000
0.000000
0.000000
0.000000
0.000000
0.000000
0.000000
0.000000
0.000000
0.000000
0.000000
0.000000
0.000000
0.000000
0.000000
0.000000
0.000000
0.000000
0.000000
0.000000
0.000000
0.000000
0.000000
0.000000
0.000000
0.000000
0.000000
0.000000
0.000000
0.000000
0.000000
0.000000
0.000000
0.000000
0.000000
0.000000
0.000000
0.000000
0.000000
0.000000
0.000000
0.000000
0.000000
0.000000
0.000000
0.000000
0.000000
0.000000
0.000000
0.000000
0.000000
0.000000
0.000000
0.000000
0.000000
0.000000
0.000000
0.000000
0.000000
