# vtk DataFile Version 2.0
generated by CFD-lab course output (written by Tobias Neckel) 
ASCII

DATASET STRUCTURED_GRID
DIMENSIONS  48 6 1 
POINTS 288 float

0.000000 0.000000 0
0.202128 0.000000 0
0.404255 0.000000 0
0.606383 0.000000 0
0.808511 0.000000 0
1.010638 0.000000 0
1.212766 0.000000 0
1.414894 0.000000 0
1.617021 0.000000 0
1.819149 0.000000 0
2.021277 0.000000 0
2.223404 0.000000 0
2.425532 0.000000 0
2.627660 0.000000 0
2.829787 0.000000 0
3.031915 0.000000 0
3.234043 0.000000 0
3.436170 0.000000 0
3.638298 0.000000 0
3.840426 0.000000 0
4.042553 0.000000 0
4.244681 0.000000 0
4.446809 0.000000 0
4.648936 0.000000 0
4.851064 0.000000 0
5.053191 0.000000 0
5.255319 0.000000 0
5.457447 0.000000 0
5.659574 0.000000 0
5.861702 0.000000 0
6.063830 0.000000 0
6.265957 0.000000 0
6.468085 0.000000 0
6.670213 0.000000 0
6.872340 0.000000 0
7.074468 0.000000 0
7.276596 0.000000 0
7.478723 0.000000 0
7.680851 0.000000 0
7.882979 0.000000 0
8.085106 0.000000 0
8.287234 0.000000 0
8.489362 0.000000 0
8.691489 0.000000 0
8.893617 0.000000 0
9.095745 0.000000 0
9.297872 0.000000 0
9.500000 0.000000 0
0.000000 0.200000 0
0.202128 0.200000 0
0.404255 0.200000 0
0.606383 0.200000 0
0.808511 0.200000 0
1.010638 0.200000 0
1.212766 0.200000 0
1.414894 0.200000 0
1.617021 0.200000 0
1.819149 0.200000 0
2.021277 0.200000 0
2.223404 0.200000 0
2.425532 0.200000 0
2.627660 0.200000 0
2.829787 0.200000 0
3.031915 0.200000 0
3.234043 0.200000 0
3.436170 0.200000 0
3.638298 0.200000 0
3.840426 0.200000 0
4.042553 0.200000 0
4.244681 0.200000 0
4.446809 0.200000 0
4.648936 0.200000 0
4.851064 0.200000 0
5.053191 0.200000 0
5.255319 0.200000 0
5.457447 0.200000 0
5.659574 0.200000 0
5.861702 0.200000 0
6.063830 0.200000 0
6.265957 0.200000 0
6.468085 0.200000 0
6.670213 0.200000 0
6.872340 0.200000 0
7.074468 0.200000 0
7.276596 0.200000 0
7.478723 0.200000 0
7.680851 0.200000 0
7.882979 0.200000 0
8.085106 0.200000 0
8.287234 0.200000 0
8.489362 0.200000 0
8.691489 0.200000 0
8.893617 0.200000 0
9.095745 0.200000 0
9.297872 0.200000 0
9.500000 0.200000 0
0.000000 0.400000 0
0.202128 0.400000 0
0.404255 0.400000 0
0.606383 0.400000 0
0.808511 0.400000 0
1.010638 0.400000 0
1.212766 0.400000 0
1.414894 0.400000 0
1.617021 0.400000 0
1.819149 0.400000 0
2.021277 0.400000 0
2.223404 0.400000 0
2.425532 0.400000 0
2.627660 0.400000 0
2.829787 0.400000 0
3.031915 0.400000 0
3.234043 0.400000 0
3.436170 0.400000 0
3.638298 0.400000 0
3.840426 0.400000 0
4.042553 0.400000 0
4.244681 0.400000 0
4.446809 0.400000 0
4.648936 0.400000 0
4.851064 0.400000 0
5.053191 0.400000 0
5.255319 0.400000 0
5.457447 0.400000 0
5.659574 0.400000 0
5.861702 0.400000 0
6.063830 0.400000 0
6.265957 0.400000 0
6.468085 0.400000 0
6.670213 0.400000 0
6.872340 0.400000 0
7.074468 0.400000 0
7.276596 0.400000 0
7.478723 0.400000 0
7.680851 0.400000 0
7.882979 0.400000 0
8.085106 0.400000 0
8.287234 0.400000 0
8.489362 0.400000 0
8.691489 0.400000 0
8.893617 0.400000 0
9.095745 0.400000 0
9.297872 0.400000 0
9.500000 0.400000 0
0.000000 0.600000 0
0.202128 0.600000 0
0.404255 0.600000 0
0.606383 0.600000 0
0.808511 0.600000 0
1.010638 0.600000 0
1.212766 0.600000 0
1.414894 0.600000 0
1.617021 0.600000 0
1.819149 0.600000 0
2.021277 0.600000 0
2.223404 0.600000 0
2.425532 0.600000 0
2.627660 0.600000 0
2.829787 0.600000 0
3.031915 0.600000 0
3.234043 0.600000 0
3.436170 0.600000 0
3.638298 0.600000 0
3.840426 0.600000 0
4.042553 0.600000 0
4.244681 0.600000 0
4.446809 0.600000 0
4.648936 0.600000 0
4.851064 0.600000 0
5.053191 0.600000 0
5.255319 0.600000 0
5.457447 0.600000 0
5.659574 0.600000 0
5.861702 0.600000 0
6.063830 0.600000 0
6.265957 0.600000 0
6.468085 0.600000 0
6.670213 0.600000 0
6.872340 0.600000 0
7.074468 0.600000 0
7.276596 0.600000 0
7.478723 0.600000 0
7.680851 0.600000 0
7.882979 0.600000 0
8.085106 0.600000 0
8.287234 0.600000 0
8.489362 0.600000 0
8.691489 0.600000 0
8.893617 0.600000 0
9.095745 0.600000 0
9.297872 0.600000 0
9.500000 0.600000 0
0.000000 0.800000 0
0.202128 0.800000 0
0.404255 0.800000 0
0.606383 0.800000 0
0.808511 0.800000 0
1.010638 0.800000 0
1.212766 0.800000 0
1.414894 0.800000 0
1.617021 0.800000 0
1.819149 0.800000 0
2.021277 0.800000 0
2.223404 0.800000 0
2.425532 0.800000 0
2.627660 0.800000 0
2.829787 0.800000 0
3.031915 0.800000 0
3.234043 0.800000 0
3.436170 0.800000 0
3.638298 0.800000 0
3.840426 0.800000 0
4.042553 0.800000 0
4.244681 0.800000 0
4.446809 0.800000 0
4.648936 0.800000 0
4.851064 0.800000 0
5.053191 0.800000 0
5.255319 0.800000 0
5.457447 0.800000 0
5.659574 0.800000 0
5.861702 0.800000 0
6.063830 0.800000 0
6.265957 0.800000 0
6.468085 0.800000 0
6.670213 0.800000 0
6.872340 0.800000 0
7.074468 0.800000 0
7.276596 0.800000 0
7.478723 0.800000 0
7.680851 0.800000 0
7.882979 0.800000 0
8.085106 0.800000 0
8.287234 0.800000 0
8.489362 0.800000 0
8.691489 0.800000 0
8.893617 0.800000 0
9.095745 0.800000 0
9.297872 0.800000 0
9.500000 0.800000 0
0.000000 1.000000 0
0.202128 1.000000 0
0.404255 1.000000 0
0.606383 1.000000 0
0.808511 1.000000 0
1.010638 1.000000 0
1.212766 1.000000 0
1.414894 1.000000 0
1.617021 1.000000 0
1.819149 1.000000 0
2.021277 1.000000 0
2.223404 1.000000 0
2.425532 1.000000 0
2.627660 1.000000 0
2.829787 1.000000 0
3.031915 1.000000 0
3.234043 1.000000 0
3.436170 1.000000 0
3.638298 1.000000 0
3.840426 1.000000 0
4.042553 1.000000 0
4.244681 1.000000 0
4.446809 1.000000 0
4.648936 1.000000 0
4.851064 1.000000 0
5.053191 1.000000 0
5.255319 1.000000 0
5.457447 1.000000 0
5.659574 1.000000 0
5.861702 1.000000 0
6.063830 1.000000 0
6.265957 1.000000 0
6.468085 1.000000 0
6.670213 1.000000 0
6.872340 1.000000 0
7.074468 1.000000 0
7.276596 1.000000 0
7.478723 1.000000 0
7.680851 1.000000 0
7.882979 1.000000 0
8.085106 1.000000 0
8.287234 1.000000 0
8.489362 1.000000 0
8.691489 1.000000 0
8.893617 1.000000 0
9.095745 1.000000 0
9.297872 1.000000 0
9.500000 1.000000 0
POINT_DATA 288 

VECTORS velocity float
0.000000 0.000000 0
-0.000043 0.000000 0
-0.000022 0.000000 0
0.000045 0.000000 0
-0.000005 0.000000 0
-0.000045 0.000000 0
0.000027 0.000000 0
0.000046 0.000000 0
-0.000031 0.000000 0
-0.000041 0.000000 0
0.000025 0.000000 0
0.000035 0.000000 0
-0.000013 0.000000 0
-0.000025 0.000000 0
0.000002 0.000000 0
0.000015 0.000000 0
0.000005 0.000000 0
-0.000007 0.000000 0
-0.000007 0.000000 0
0.000002 0.000000 0
0.000007 0.000000 0
0.000000 0.000000 0
-0.000005 0.000000 0
-0.000001 0.000000 0
0.000004 0.000000 0
0.000001 0.000000 0
-0.000003 0.000000 0
-0.000001 0.000000 0
0.000001 0.000000 0
0.000000 0.000000 0
-0.000000 0.000000 0
-0.000000 0.000000 0
-0.000000 0.000000 0
-0.000000 0.000000 0
0.000000 0.000000 0
0.000000 0.000000 0
-0.000000 0.000000 0
-0.000000 0.000000 0
0.000000 0.000000 0
0.000000 0.000000 0
-0.000000 0.000000 0
-0.000000 0.000000 0
-0.000000 0.000000 0
-0.000000 0.000000 0
-0.000000 0.000000 0
0.000000 0.000000 0
0.000000 0.000000 0
0.000000 0.000000 0
0.000000 -0.000017 0
-0.000034 -0.000011 0
0.000005 0.000015 0
0.000012 0.000026 0
-0.000049 -0.000011 0
-0.000038 -0.000021 0
0.000033 0.000008 0
0.000032 0.000005 0
-0.000015 -0.000019 0
-0.000008 -0.000008 0
0.000025 0.000020 0
0.000014 0.000017 0
-0.000016 -0.000004 0
-0.000019 -0.000011 0
-0.000002 -0.000003 0
0.000008 0.000003 0
0.000004 0.000002 0
-0.000003 -0.000002 0
-0.000003 -0.000003 0
0.000003 0.000001 0
0.000004 0.000003 0
-0.000001 0.000001 0
-0.000004 -0.000002 0
-0.000000 -0.000001 0
0.000002 0.000001 0
-0.000000 0.000000 0
-0.000002 -0.000001 0
0.000000 -0.000000 0
0.000001 0.000000 0
0.000000 0.000000 0
-0.000000 0.000000 0
-0.000000 0.000000 0
-0.000000 -0.000000 0
0.000000 -0.000000 0
0.000000 -0.000000 0
0.000000 0.000000 0
-0.000000 0.000000 0
-0.000000 -0.000000 0
0.000000 -0.000000 0
0.000000 -0.000000 0
0.000000 0.000000 0
0.000000 0.000000 0
-0.000000 0.000000 0
-0.000000 0.000000 0
-0.000000 0.000000 0
-0.000000 -0.000000 0
-0.000000 -0.000000 0
0.000000 -0.000000 0
0.000000 -0.000033 0
-0.000012 0.000002 0
0.000037 0.000033 0
-0.000018 0.000010 0
-0.000052 -0.000015 0
0.000012 -0.000005 0
0.000034 -0.000007 0
-0.000016 -0.000028 0
-0.000022 -0.000016 0
0.000019 0.000020 0
0.000023 0.000027 0
-0.000008 0.000007 0
-0.000016 -0.000006 0
-0.000003 -0.000003 0
0.000004 -0.000001 0
0.000003 -0.000002 0
-0.000002 -0.000005 0
-0.000003 -0.000003 0
0.000000 0.000002 0
0.000004 0.000004 0
0.000001 0.000001 0
-0.000003 -0.000002 0
-0.000001 -0.000000 0
0.000001 0.000002 0
0.000000 0.000000 0
-0.000001 -0.000002 0
-0.000000 -0.000001 0
0.000000 0.000001 0
-0.000000 0.000000 0
0.000000 -0.000000 0
0.000000 0.000000 0
-0.000000 0.000000 0
-0.000000 0.000000 0
-0.000000 -0.000000 0
0.000000 -0.000000 0
0.000000 -0.000000 0
-0.000000 0.000000 0
-0.000000 0.000000 0
0.000000 -0.000000 0
0.000000 -0.000001 0
0.000000 0.000000 0
-0.000000 0.000001 0
-0.000000 0.000000 0
-0.000000 -0.000000 0
-0.000000 -0.000000 0
-0.000000 -0.000000 0
-0.000000 -0.000000 0
0.000000 0.000000 0
0.000000 -0.000008 0
0.000017 0.000011 0
0.000031 0.000018 0
-0.000026 0.000001 0
-0.000010 -0.000000 0
0.000045 -0.000005 0
0.000014 -0.000026 0
-0.000038 -0.000028 0
-0.000019 -0.000001 0
0.000017 0.000019 0
0.000007 0.000016 0
-0.000012 0.000006 0
-0.000004 0.000002 0
0.000007 -0.000002 0
0.000007 -0.000005 0
0.000000 -0.000004 0
-0.000004 -0.000003 0
-0.000003 -0.000001 0
0.000002 0.000001 0
0.000002 0.000002 0
-0.000002 0.000001 0
-0.000002 -0.000000 0
0.000002 -0.000000 0
0.000002 -0.000000 0
-0.000001 -0.000000 0
-0.000001 -0.000000 0
0.000001 -0.000001 0
0.000000 -0.000001 0
-0.000001 0.000000 0
-0.000000 0.000001 0
0.000000 0.000000 0
0.000000 -0.000000 0
0.000000 -0.000000 0
-0.000000 -0.000000 0
-0.000000 0.000000 0
0.000000 0.000000 0
0.000000 -0.000000 0
0.000000 -0.000000 0
-0.000000 -0.000000 0
-0.000000 -0.000000 0
0.000000 -0.000000 0
-0.000000 0.000000 0
-0.000000 0.000000 0
0.000000 0.000000 0
0.000000 -0.000000 0
0.000000 -0.000000 0
-0.000000 -0.000000 0
0.000000 0.000000 0
0.000000 0.000006 0
0.000027 0.000005 0
0.000017 0.000003 0
-0.000021 0.000003 0
0.000017 0.000006 0
0.000051 -0.000006 0
0.000002 -0.000019 0
-0.000039 -0.000011 0
-0.000017 0.000004 0
0.000009 0.000008 0
-0.000000 0.000005 0
-0.000008 0.000004 0
0.000002 0.000003 0
0.000011 -0.000001 0
0.000008 -0.000004 0
-0.000000 -0.000003 0
-0.000005 -0.000001 0
-0.000003 0.000001 0
0.000002 0.000001 0
0.000001 -0.000000 0
-0.000002 0.000000 0
-0.000001 0.000001 0
0.000002 0.000000 0
0.000002 -0.000001 0
-0.000001 -0.000001 0
-0.000001 0.000000 0
0.000001 0.000000 0
0.000000 -0.000000 0
-0.000000 -0.000000 0
-0.000000 0.000000 0
0.000000 0.000000 0
0.000000 0.000000 0
0.000000 -0.000000 0
0.000000 -0.000000 0
-0.000000 0.000000 0
-0.000000 0.000000 0
0.000000 0.000000 0
0.000000 -0.000000 0
-0.000000 -0.000000 0
-0.000000 -0.000000 0
-0.000000 0.000000 0
0.000000 0.000000 0
0.000000 0.000000 0
0.000000 0.000000 0
0.000000 -0.000000 0
0.000000 -0.000000 0
0.000000 -0.000000 0
0.000000 0.000000 0
0.000000 0.000000 0
0.000027 0.000000 0
0.000010 0.000000 0
-0.000034 0.000000 0
0.000002 0.000000 0
0.000034 0.000000 0
-0.000008 0.000000 0
-0.000031 0.000000 0
0.000007 0.000000 0
0.000024 0.000000 0
-0.000003 0.000000 0
-0.000016 0.000000 0
-0.000001 0.000000 0
0.000008 0.000000 0
0.000004 0.000000 0
-0.000003 0.000000 0
-0.000004 0.000000 0
0.000000 0.000000 0
0.000004 0.000000 0
0.000001 0.000000 0
-0.000003 0.000000 0
-0.000001 0.000000 0
0.000002 0.000000 0
0.000001 0.000000 0
-0.000001 0.000000 0
-0.000001 0.000000 0
0.000001 0.000000 0
0.000000 0.000000 0
-0.000000 0.000000 0
-0.000000 0.000000 0
0.000000 0.000000 0
-0.000000 0.000000 0
0.000000 0.000000 0
0.000000 0.000000 0
-0.000000 0.000000 0
-0.000000 0.000000 0
0.000000 0.000000 0
0.000000 0.000000 0
-0.000000 0.000000 0
-0.000000 0.000000 0
0.000000 0.000000 0
0.000000 0.000000 0
-0.000000 0.000000 0
-0.000000 0.000000 0
0.000000 0.000000 0
0.000000 0.000000 0
-0.000000 0.000000 0
0.000000 0.000000 0

CELL_DATA 235 
SCALARS pressure float 1 
LOOKUP_TABLE default 
0.211944
0.212021
0.212049
0.211984
0.212010
0.212085
0.212035
0.211958
0.212003
0.212064
0.212024
0.211970
0.211990
0.212032
0.212032
0.212008
0.211998
0.212009
0.212020
0.212017
0.212006
0.212006
0.212014
0.212016
0.212010
0.212009
0.212013
0.212013
0.212011
0.212011
0.212012
0.212012
0.212012
0.212012
0.212012
0.212011
0.212012
0.212012
0.212012
0.212012
0.212011
0.212011
0.212011
0.212012
0.212012
0.212012
0.212012
0.133532
0.133603
0.133538
0.133517
0.133614
0.133610
0.133514
0.133531
0.133615
0.133599
0.133528
0.133531
0.133577
0.133586
0.133564
0.133550
0.133558
0.133571
0.133572
0.133561
0.133556
0.133564
0.133569
0.133564
0.133560
0.133564
0.133566
0.133564
0.133563
0.133564
0.133564
0.133564
0.133564
0.133564
0.133564
0.133564
0.133564
0.133564
0.133564
0.133564
0.133564
0.133564
0.133564
0.133564
0.133564
0.133564
0.133564
0.055120
0.055111
0.055029
0.055085
0.055156
0.055077
0.055026
0.055110
0.055152
0.055087
0.055052
0.055093
0.055120
0.055102
0.055083
0.055084
0.055097
0.055103
0.055096
0.055088
0.055092
0.055099
0.055097
0.055091
0.055093
0.055097
0.055095
0.055093
0.055094
0.055095
0.055095
0.055094
0.055095
0.055095
0.055095
0.055095
0.055095
0.055095
0.055095
0.055095
0.055094
0.055095
0.055095
0.055095
0.055095
0.055095
0.055095
-0.023349
-0.023402
-0.023443
-0.023370
-0.023357
-0.023442
-0.023443
-0.023364
-0.023360
-0.023416
-0.023420
-0.023383
-0.023376
-0.023395
-0.023407
-0.023402
-0.023391
-0.023389
-0.023397
-0.023401
-0.023395
-0.023391
-0.023395
-0.023399
-0.023396
-0.023394
-0.023396
-0.023397
-0.023396
-0.023395
-0.023396
-0.023396
-0.023396
-0.023396
-0.023396
-0.023396
-0.023396
-0.023396
-0.023396
-0.023396
-0.023396
-0.023396
-0.023396
-0.023396
-0.023396
-0.023396
-0.023396
-0.101863
-0.101911
-0.101930
-0.101876
-0.101884
-0.101952
-0.101942
-0.101882
-0.101882
-0.101920
-0.101919
-0.101894
-0.101892
-0.101907
-0.101917
-0.101912
-0.101904
-0.101903
-0.101909
-0.101911
-0.101907
-0.101904
-0.101908
-0.101910
-0.101908
-0.101907
-0.101908
-0.101909
-0.101908
-0.101908
-0.101908
-0.101908
-0.101908
-0.101908
-0.101908
-0.101908
-0.101908
-0.101908
-0.101908
-0.101908
-0.101908
-0.101908
-0.101908
-0.101908
-0.101909
-0.101909
-0.101909

SCALARS temperature float 1 
LOOKUP_TABLE default 
0.289283
0.295605
0.297657
0.290571
0.273601
0.255795
0.256562
0.275588
0.296559
0.308477
0.309814
0.305400
0.300482
0.297937
0.298403
0.300607
0.303350
0.305757
0.307385
0.308367
0.308950
0.309180
0.309439
0.309925
0.310366
0.310736
0.311192
0.311857
0.312590
0.313150
0.313303
0.313146
0.313066
0.313452
0.314143
0.314574
0.314438
0.314046
0.314183
0.314850
0.315302
0.315394
0.315345
0.315296
0.315262
0.315356
0.315602
0.172133
0.186423
0.190979
0.165045
0.117007
0.078378
0.077593
0.111179
0.150691
0.173731
0.174644
0.160588
0.145045
0.136769
0.136723
0.140201
0.143337
0.146119
0.148946
0.150324
0.149415
0.147873
0.147254
0.147471
0.147772
0.147412
0.147047
0.147815
0.149119
0.149632
0.149201
0.148301
0.147657
0.148090
0.149178
0.149638
0.149041
0.148118
0.148046
0.148971
0.149930
0.150093
0.149611
0.149075
0.148726
0.148653
0.148913
0.046107
0.064626
0.074493
0.045290
-0.014618
-0.064420
-0.068314
-0.029198
0.019608
0.046644
0.045010
0.025443
0.004706
-0.006465
-0.007446
-0.004158
-0.000609
0.002734
0.005468
0.006336
0.005076
0.002990
0.001560
0.001391
0.001266
0.000536
0.000130
0.000817
0.001913
0.002400
0.001791
0.000391
-0.000503
-0.000108
0.001038
0.001523
0.000672
-0.000597
-0.000755
0.000383
0.001445
0.001531
0.000897
0.000130
-0.000489
-0.000692
-0.000490
-0.104580
-0.085607
-0.070808
-0.092010
-0.142624
-0.185269
-0.190294
-0.160011
-0.120723
-0.098175
-0.101488
-0.120334
-0.139067
-0.148373
-0.149519
-0.147471
-0.145189
-0.142964
-0.140850
-0.140256
-0.141843
-0.144149
-0.145333
-0.145616
-0.145984
-0.146782
-0.147395
-0.147091
-0.146177
-0.145879
-0.146686
-0.147883
-0.148649
-0.148481
-0.147672
-0.147326
-0.148111
-0.149148
-0.149322
-0.148567
-0.147680
-0.147582
-0.148222
-0.149005
-0.149525
-0.149787
-0.149699
-0.287738
-0.278344
-0.267789
-0.278015
-0.302587
-0.321492
-0.324208
-0.311670
-0.294110
-0.282990
-0.285418
-0.295634
-0.304654
-0.309189
-0.310296
-0.309861
-0.309304
-0.308768
-0.308261
-0.308323
-0.309245
-0.310485
-0.311404
-0.311837
-0.312175
-0.312706
-0.313160
-0.313230
-0.313020
-0.313014
-0.313467
-0.314152
-0.314602
-0.314615
-0.314332
-0.314266
-0.314733
-0.315225
-0.315324
-0.315060
-0.314729
-0.314744
-0.315077
-0.315502
-0.315832
-0.316013
-0.316046


SCALARS Species_1 float 1 
LOOKUP_TABLE default 
0.000000
0.000000
0.000000
0.000000
0.000000
0.000000
0.000000
0.000000
0.000000
0.000000
0.000000
0.000000
0.000000
0.000000
0.000000
0.000000
0.000000
0.000000
0.000000
0.000000
0.000000
0.000000
0.000000
0.000000
0.000000
0.000000
0.000000
0.000000
0.000000
0.000000
0.000000
0.000000
0.000000
0.000000
0.000000
0.000000
0.000000
0.000000
0.000000
0.000000
0.000000
0.000000
0.000000
0.000000
0.000000
0.000000
0.000000
0.000000
0.000000
0.000000
0.000000
0.000000
0.000000
0.000000
0.000000
0.000000
0.000000
0.000000
0.000000
0.000000
0.000000
0.000000
0.000000
0.000000
0.000000
0.000000
0.000000
0.000000
0.000000
0.000000
0.000000
0.000000
0.000000
0.000000
0.000000
0.000000
0.000000
0.000000
0.000000
0.000000
0.000000
0.000000
0.000000
0.000000
0.000000
0.000000
0.000000
0.000000
0.000000
0.000000
0.000000
0.000000
0.000000
0.000000
0.000000
0.000000
0.000000
0.000000
0.000000
0.000000
0.000000
0.000000
0.000000
0.000000
0.000000
0.000000
0.000000
0.000000
0.000000
0.000000
0.000000
0.000000
0.000000
0.000000
0.000000
0.000000
0.000000
0.000000
0.000000
0.000000
0.000000
0.000000
0.000000
0.000000
0.000000
0.000000
0.000000
0.000000
0.000000
0.000000
0.000000
0.000000
0.000000
0.000000
0.000000
0.000000
0.000000
0.000000
0.000000
0.000000
0.000000
0.000000
0.000000
0.000000
0.000000
0.000000
0.000000
0.000000
0.000000
0.000000
0.000000
0.000000
0.000000
0.000000
0.000000
0.000000
0.000000
0.000000
0.000000
0.000000
0.000000
0.000000
0.000000
0.000000
0.000000
0.000000
0.000000
0.000000
0.000000
0.000000
0.000000
0.000000
0.000000
0.000000
0.000000
0.000000
0.000000
0.000000
0.000000
0.000000
0.000000
0.000000
0.000000
0.000000
0.000000
0.000000
0.000000
0.000000
0.000000
0.000000
0.000000
0.000000
0.000000
0.000000
0.000000
0.000000
0.000000
0.000000
0.000000
0.000000
0.000000
0.000000
0.000000
0.000000
0.000000
0.000000
0.000000
0.000000
0.000000
0.000000
0.000000
0.000000
0.000000
0.000000
0.000000
0.000000
0.000000
0.000000
0.000000
0.000000
0.000000
0.000000
0.000000
0.000000
0.000000
0.000000
0.000000
0.000000
0.000000
0.000000
0.000000
0.000000
0.000000
0.000000
0.000000


SCALARS Species_2 float 1 
LOOKUP_TABLE default 
0.000000
0.000000
0.000000
0.000000
0.000000
0.000000
0.000000
0.000000
0.000000
0.000000
0.000000
0.000000
0.000000
0.000000
0.000000
0.000000
0.000000
0.000000
0.000000
0.000000
0.000000
0.000000
0.000000
0.000000
0.000000
0.000000
0.000000
0.000000
0.000000
0.000000
0.000000
0.000000
0.000000
0.000000
0.000000
0.000000
0.000000
0.000000
0.000000
0.000000
0.000000
0.000000
0.000000
0.000000
0.000000
0.000000
0.000000
0.000000
0.000000
0.000000
0.000000
0.000000
0.000000
0.000000
0.000000
0.000000
0.000000
0.000000
0.000000
0.000000
0.000000
0.000000
0.000000
0.000000
0.000000
0.000000
0.000000
0.000000
0.000000
0.000000
0.000000
0.000000
0.000000
0.000000
0.000000
0.000000
0.000000
0.000000
0.000000
0.000000
0.000000
0.000000
0.000000
0.000000
0.000000
0.000000
0.000000
0.000000
0.000000
0.000000
0.000000
0.000000
0.000000
0.000000
0.000000
0.000000
0.000000
0.000000
0.000000
0.000000
0.000000
0.000000
0.000000
0.000000
0.000000
0.000000
0.000000
0.000000
0.000000
0.000000
0.000000
0.000000
0.000000
0.000000
0.000000
0.000000
0.000000
0.000000
0.000000
0.000000
0.000000
0.000000
0.000000
0.000000
0.000000
0.000000
0.000000
0.000000
0.000000
0.000000
0.000000
0.000000
0.000000
0.000000
0.000000
0.000000
0.000000
0.000000
0.000000
0.000000
0.000000
0.000000
0.000000
0.000000
0.000000
0.000000
0.000000
0.000000
0.000000
0.000000
0.000000
0.000000
0.000000
0.000000
0.000000
0.000000
0.000000
0.000000
0.000000
0.000000
0.000000
0.000000
0.000000
0.000000
0.000000
0.000000
0.000000
0.000000
0.000000
0.000000
0.000000
0.000000
0.000000
0.000000
0.000000
0.000000
0.000000
0.000000
0.000000
0.000000
0.000000
0.000000
0.000000
0.000000
0.000000
0.000000
0.000000
0.000000
0.000000
0.000000
0.000000
0.000000
0.000000
0.000000
0.000000
0.000000
0.000000
0.000000
0.000000
0.000000
0.000000
0.000000
0.000000
0.000000
0.000000
0.000000
0.000000
0.000000
0.000000
0.000000
0.000000
0.000000
0.000000
0.000000
0.000000
0.000000
0.000000
0.000000
0.000000
0.000000
0.000000
0.000000
0.000000
0.000000
0.000000
0.000000
0.000000
0.000000
0.000000
0.000000
0.000000
0.000000
0.000000
0.000000
0.000000


SCALARS Species_3 float 1 
LOOKUP_TABLE default 
0.000000
0.000000
0.000000
0.000000
0.000000
0.000000
0.000000
0.000000
0.000000
0.000000
0.000000
0.000000
0.000000
0.000000
0.000000
0.000000
0.000000
0.000000
0.000000
0.000000
0.000000
0.000000
0.000000
0.000000
0.000000
0.000000
0.000000
0.000000
0.000000
0.000000
0.000000
0.000000
0.000000
0.000000
0.000000
0.000000
0.000000
0.000000
0.000000
0.000000
0.000000
0.000000
0.000000
0.000000
0.000000
0.000000
0.000000
0.000000
0.000000
0.000000
0.000000
0.000000
0.000000
0.000000
0.000000
0.000000
0.000000
0.000000
0.000000
0.000000
0.000000
0.000000
0.000000
0.000000
0.000000
0.000000
0.000000
0.000000
0.000000
0.000000
0.000000
0.000000
0.000000
0.000000
0.000000
0.000000
0.000000
0.000000
0.000000
0.000000
0.000000
0.000000
0.000000
0.000000
0.000000
0.000000
0.000000
0.000000
0.000000
0.000000
0.000000
0.000000
0.000000
0.000000
0.000000
0.000000
0.000000
0.000000
0.000000
0.000000
0.000000
0.000000
0.000000
0.000000
0.000000
0.000000
0.000000
0.000000
0.000000
0.000000
0.000000
0.000000
0.000000
0.000000
0.000000
0.000000
0.000000
0.000000
0.000000
0.000000
0.000000
0.000000
0.000000
0.000000
0.000000
0.000000
0.000000
0.000000
0.000000
0.000000
0.000000
0.000000
0.000000
0.000000
0.000000
0.000000
0.000000
0.000000
0.000000
0.000000
0.000000
0.000000
0.000000
0.000000
0.000000
0.000000
0.000000
0.000000
0.000000
0.000000
0.000000
0.000000
0.000000
0.000000
0.000000
0.000000
0.000000
0.000000
0.000000
0.000000
0.000000
0.000000
0.000000
0.000000
0.000000
0.000000
0.000000
0.000000
0.000000
0.000000
0.000000
0.000000
0.000000
0.000000
0.000000
0.000000
0.000000
0.000000
0.000000
0.000000
0.000000
0.000000
0.000000
0.000000
0.000000
0.000000
0.000000
0.000000
0.000000
0.000000
0.000000
0.000000
0.000000
0.000000
0.000000
0.000000
0.000000
0.000000
0.000000
0.000000
0.000000
0.000000
0.000000
0.000000
0.000000
0.000000
0.000000
0.000000
0.000000
0.000000
0.000000
0.000000
0.000000
0.000000
0.000000
0.000000
0.000000
0.000000
0.000000
0.000000
0.000000
0.000000
0.000000
0.000000
0.000000
0.000000
0.000000
0.000000
0.000000
0.000000
0.000000
0.000000
0.000000
0.000000
0.000000


SCALARS Species_4 float 1 
LOOKUP_TABLE default 
0.000000
0.000000
0.000000
0.000000
0.000000
0.000000
0.000000
0.000000
0.000000
0.000000
0.000000
0.000000
0.000000
0.000000
0.000000
0.000000
0.000000
0.000000
0.000000
0.000000
0.000000
0.000000
0.000000
0.000000
0.000000
0.000000
0.000000
0.000000
0.000000
0.000000
0.000000
0.000000
0.000000
0.000000
0.000000
0.000000
0.000000
0.000000
0.000000
0.000000
0.000000
0.000000
0.000000
0.000000
0.000000
0.000000
0.000000
0.000000
0.000000
0.000000
0.000000
0.000000
0.000000
0.000000
0.000000
0.000000
0.000000
0.000000
0.000000
0.000000
0.000000
0.000000
0.000000
0.000000
0.000000
0.000000
0.000000
0.000000
0.000000
0.000000
0.000000
0.000000
0.000000
0.000000
0.000000
0.000000
0.000000
0.000000
0.000000
0.000000
0.000000
0.000000
0.000000
0.000000
0.000000
0.000000
0.000000
0.000000
0.000000
0.000000
0.000000
0.000000
0.000000
0.000000
0.000000
0.000000
0.000000
0.000000
0.000000
0.000000
0.000000
0.000000
0.000000
0.000000
0.000000
0.000000
0.000000
0.000000
0.000000
0.000000
0.000000
0.000000
0.000000
0.000000
0.000000
0.000000
0.000000
0.000000
0.000000
0.000000
0.000000
0.000000
0.000000
0.000000
0.000000
0.000000
0.000000
0.000000
0.000000
0.000000
0.000000
0.000000
0.000000
0.000000
0.000000
0.000000
0.000000
0.000000
0.000000
0.000000
0.000000
0.000000
0.000000
0.000000
0.000000
0.000000
0.000000
0.000000
0.000000
0.000000
0.000000
0.000000
0.000000
0.000000
0.000000
0.000000
0.000000
0.000000
0.000000
0.000000
0.000000
0.000000
0.000000
0.000000
0.000000
0.000000
0.000000
0.000000
0.000000
0.000000
0.000000
0.000000
0.000000
0.000000
0.000000
0.000000
0.000000
0.000000
0.000000
0.000000
0.000000
0.000000
0.000000
0.000000
0.000000
0.000000
0.000000
0.000000
0.000000
0.000000
0.000000
0.000000
0.000000
0.000000
0.000000
0.000000
0.000000
0.000000
0.000000
0.000000
0.000000
0.000000
0.000000
0.000000
0.000000
0.000000
0.000000
0.000000
0.000000
0.000000
0.000000
0.000000
0.000000
0.000000
0.000000
0.000000
0.000000
0.000000
0.000000
0.000000
0.000000
0.000000
0.000000
0.000000
0.000000
0.000000
0.000000
0.000000
0.000000
0.000000
0.000000
0.000000
0.000000
0.000000
0.000000
