# vtk DataFile Version 2.0
generated by CFD-lab course output (written by Tobias Neckel) 
ASCII

DATASET STRUCTURED_GRID
DIMENSIONS  48 6 1 
POINTS 288 float

0.000000 0.000000 0
0.202128 0.000000 0
0.404255 0.000000 0
0.606383 0.000000 0
0.808511 0.000000 0
1.010638 0.000000 0
1.212766 0.000000 0
1.414894 0.000000 0
1.617021 0.000000 0
1.819149 0.000000 0
2.021277 0.000000 0
2.223404 0.000000 0
2.425532 0.000000 0
2.627660 0.000000 0
2.829787 0.000000 0
3.031915 0.000000 0
3.234043 0.000000 0
3.436170 0.000000 0
3.638298 0.000000 0
3.840426 0.000000 0
4.042553 0.000000 0
4.244681 0.000000 0
4.446809 0.000000 0
4.648936 0.000000 0
4.851064 0.000000 0
5.053191 0.000000 0
5.255319 0.000000 0
5.457447 0.000000 0
5.659574 0.000000 0
5.861702 0.000000 0
6.063830 0.000000 0
6.265957 0.000000 0
6.468085 0.000000 0
6.670213 0.000000 0
6.872340 0.000000 0
7.074468 0.000000 0
7.276596 0.000000 0
7.478723 0.000000 0
7.680851 0.000000 0
7.882979 0.000000 0
8.085106 0.000000 0
8.287234 0.000000 0
8.489362 0.000000 0
8.691489 0.000000 0
8.893617 0.000000 0
9.095745 0.000000 0
9.297872 0.000000 0
9.500000 0.000000 0
0.000000 0.200000 0
0.202128 0.200000 0
0.404255 0.200000 0
0.606383 0.200000 0
0.808511 0.200000 0
1.010638 0.200000 0
1.212766 0.200000 0
1.414894 0.200000 0
1.617021 0.200000 0
1.819149 0.200000 0
2.021277 0.200000 0
2.223404 0.200000 0
2.425532 0.200000 0
2.627660 0.200000 0
2.829787 0.200000 0
3.031915 0.200000 0
3.234043 0.200000 0
3.436170 0.200000 0
3.638298 0.200000 0
3.840426 0.200000 0
4.042553 0.200000 0
4.244681 0.200000 0
4.446809 0.200000 0
4.648936 0.200000 0
4.851064 0.200000 0
5.053191 0.200000 0
5.255319 0.200000 0
5.457447 0.200000 0
5.659574 0.200000 0
5.861702 0.200000 0
6.063830 0.200000 0
6.265957 0.200000 0
6.468085 0.200000 0
6.670213 0.200000 0
6.872340 0.200000 0
7.074468 0.200000 0
7.276596 0.200000 0
7.478723 0.200000 0
7.680851 0.200000 0
7.882979 0.200000 0
8.085106 0.200000 0
8.287234 0.200000 0
8.489362 0.200000 0
8.691489 0.200000 0
8.893617 0.200000 0
9.095745 0.200000 0
9.297872 0.200000 0
9.500000 0.200000 0
0.000000 0.400000 0
0.202128 0.400000 0
0.404255 0.400000 0
0.606383 0.400000 0
0.808511 0.400000 0
1.010638 0.400000 0
1.212766 0.400000 0
1.414894 0.400000 0
1.617021 0.400000 0
1.819149 0.400000 0
2.021277 0.400000 0
2.223404 0.400000 0
2.425532 0.400000 0
2.627660 0.400000 0
2.829787 0.400000 0
3.031915 0.400000 0
3.234043 0.400000 0
3.436170 0.400000 0
3.638298 0.400000 0
3.840426 0.400000 0
4.042553 0.400000 0
4.244681 0.400000 0
4.446809 0.400000 0
4.648936 0.400000 0
4.851064 0.400000 0
5.053191 0.400000 0
5.255319 0.400000 0
5.457447 0.400000 0
5.659574 0.400000 0
5.861702 0.400000 0
6.063830 0.400000 0
6.265957 0.400000 0
6.468085 0.400000 0
6.670213 0.400000 0
6.872340 0.400000 0
7.074468 0.400000 0
7.276596 0.400000 0
7.478723 0.400000 0
7.680851 0.400000 0
7.882979 0.400000 0
8.085106 0.400000 0
8.287234 0.400000 0
8.489362 0.400000 0
8.691489 0.400000 0
8.893617 0.400000 0
9.095745 0.400000 0
9.297872 0.400000 0
9.500000 0.400000 0
0.000000 0.600000 0
0.202128 0.600000 0
0.404255 0.600000 0
0.606383 0.600000 0
0.808511 0.600000 0
1.010638 0.600000 0
1.212766 0.600000 0
1.414894 0.600000 0
1.617021 0.600000 0
1.819149 0.600000 0
2.021277 0.600000 0
2.223404 0.600000 0
2.425532 0.600000 0
2.627660 0.600000 0
2.829787 0.600000 0
3.031915 0.600000 0
3.234043 0.600000 0
3.436170 0.600000 0
3.638298 0.600000 0
3.840426 0.600000 0
4.042553 0.600000 0
4.244681 0.600000 0
4.446809 0.600000 0
4.648936 0.600000 0
4.851064 0.600000 0
5.053191 0.600000 0
5.255319 0.600000 0
5.457447 0.600000 0
5.659574 0.600000 0
5.861702 0.600000 0
6.063830 0.600000 0
6.265957 0.600000 0
6.468085 0.600000 0
6.670213 0.600000 0
6.872340 0.600000 0
7.074468 0.600000 0
7.276596 0.600000 0
7.478723 0.600000 0
7.680851 0.600000 0
7.882979 0.600000 0
8.085106 0.600000 0
8.287234 0.600000 0
8.489362 0.600000 0
8.691489 0.600000 0
8.893617 0.600000 0
9.095745 0.600000 0
9.297872 0.600000 0
9.500000 0.600000 0
0.000000 0.800000 0
0.202128 0.800000 0
0.404255 0.800000 0
0.606383 0.800000 0
0.808511 0.800000 0
1.010638 0.800000 0
1.212766 0.800000 0
1.414894 0.800000 0
1.617021 0.800000 0
1.819149 0.800000 0
2.021277 0.800000 0
2.223404 0.800000 0
2.425532 0.800000 0
2.627660 0.800000 0
2.829787 0.800000 0
3.031915 0.800000 0
3.234043 0.800000 0
3.436170 0.800000 0
3.638298 0.800000 0
3.840426 0.800000 0
4.042553 0.800000 0
4.244681 0.800000 0
4.446809 0.800000 0
4.648936 0.800000 0
4.851064 0.800000 0
5.053191 0.800000 0
5.255319 0.800000 0
5.457447 0.800000 0
5.659574 0.800000 0
5.861702 0.800000 0
6.063830 0.800000 0
6.265957 0.800000 0
6.468085 0.800000 0
6.670213 0.800000 0
6.872340 0.800000 0
7.074468 0.800000 0
7.276596 0.800000 0
7.478723 0.800000 0
7.680851 0.800000 0
7.882979 0.800000 0
8.085106 0.800000 0
8.287234 0.800000 0
8.489362 0.800000 0
8.691489 0.800000 0
8.893617 0.800000 0
9.095745 0.800000 0
9.297872 0.800000 0
9.500000 0.800000 0
0.000000 1.000000 0
0.202128 1.000000 0
0.404255 1.000000 0
0.606383 1.000000 0
0.808511 1.000000 0
1.010638 1.000000 0
1.212766 1.000000 0
1.414894 1.000000 0
1.617021 1.000000 0
1.819149 1.000000 0
2.021277 1.000000 0
2.223404 1.000000 0
2.425532 1.000000 0
2.627660 1.000000 0
2.829787 1.000000 0
3.031915 1.000000 0
3.234043 1.000000 0
3.436170 1.000000 0
3.638298 1.000000 0
3.840426 1.000000 0
4.042553 1.000000 0
4.244681 1.000000 0
4.446809 1.000000 0
4.648936 1.000000 0
4.851064 1.000000 0
5.053191 1.000000 0
5.255319 1.000000 0
5.457447 1.000000 0
5.659574 1.000000 0
5.861702 1.000000 0
6.063830 1.000000 0
6.265957 1.000000 0
6.468085 1.000000 0
6.670213 1.000000 0
6.872340 1.000000 0
7.074468 1.000000 0
7.276596 1.000000 0
7.478723 1.000000 0
7.680851 1.000000 0
7.882979 1.000000 0
8.085106 1.000000 0
8.287234 1.000000 0
8.489362 1.000000 0
8.691489 1.000000 0
8.893617 1.000000 0
9.095745 1.000000 0
9.297872 1.000000 0
9.500000 1.000000 0
POINT_DATA 288 

VECTORS velocity float
0.000000 0.000000 0
0.000019 0.000000 0
0.000019 0.000000 0
-0.000008 0.000000 0
-0.000014 0.000000 0
0.000001 0.000000 0
0.000007 0.000000 0
0.000001 0.000000 0
-0.000003 0.000000 0
-0.000003 0.000000 0
-0.000002 0.000000 0
0.000001 0.000000 0
0.000003 0.000000 0
0.000001 0.000000 0
-0.000002 0.000000 0
-0.000003 0.000000 0
-0.000001 0.000000 0
0.000001 0.000000 0
0.000002 0.000000 0
0.000001 0.000000 0
-0.000001 0.000000 0
-0.000001 0.000000 0
-0.000000 0.000000 0
0.000000 0.000000 0
0.000000 0.000000 0
0.000000 0.000000 0
0.000000 0.000000 0
0.000000 0.000000 0
-0.000000 0.000000 0
-0.000000 0.000000 0
-0.000000 0.000000 0
0.000000 0.000000 0
0.000000 0.000000 0
0.000000 0.000000 0
-0.000000 0.000000 0
0.000000 0.000000 0
0.000000 0.000000 0
0.000000 0.000000 0
-0.000000 0.000000 0
-0.000000 0.000000 0
0.000000 0.000000 0
0.000000 0.000000 0
-0.000000 0.000000 0
-0.000000 0.000000 0
0.000000 0.000000 0
0.000000 0.000000 0
0.000000 0.000000 0
0.000000 0.000000 0
0.000000 0.000013 0
0.000010 0.000013 0
0.000006 0.000025 0
-0.000030 0.000004 0
-0.000046 -0.000011 0
-0.000029 -0.000013 0
-0.000002 -0.000021 0
0.000022 -0.000025 0
0.000035 -0.000009 0
0.000028 0.000016 0
0.000007 0.000026 0
-0.000012 0.000017 0
-0.000018 -0.000000 0
-0.000013 -0.000011 0
-0.000006 -0.000010 0
0.000001 -0.000003 0
0.000004 0.000003 0
0.000005 0.000002 0
0.000004 -0.000000 0
0.000003 -0.000001 0
-0.000000 0.000001 0
-0.000002 0.000002 0
-0.000002 0.000001 0
-0.000001 0.000000 0
-0.000001 -0.000001 0
0.000000 -0.000001 0
0.000000 -0.000001 0
0.000001 -0.000001 0
0.000001 -0.000000 0
0.000000 0.000001 0
-0.000001 0.000001 0
-0.000001 0.000000 0
-0.000001 -0.000000 0
0.000000 -0.000001 0
0.000000 -0.000000 0
0.000000 0.000000 0
-0.000000 0.000000 0
-0.000000 -0.000000 0
0.000000 -0.000001 0
0.000001 -0.000000 0
0.000001 0.000000 0
0.000000 0.000001 0
-0.000000 0.000000 0
-0.000001 0.000000 0
-0.000001 -0.000000 0
-0.000000 -0.000000 0
-0.000000 -0.000000 0
0.000000 -0.000000 0
0.000000 0.000013 0
0.000023 0.000020 0
-0.000007 0.000024 0
-0.000025 0.000015 0
-0.000013 -0.000006 0
-0.000004 -0.000033 0
-0.000006 -0.000046 0
0.000003 -0.000034 0
0.000016 -0.000006 0
0.000017 0.000019 0
0.000004 0.000032 0
-0.000008 0.000029 0
-0.000013 0.000012 0
-0.000010 -0.000009 0
-0.000002 -0.000020 0
0.000003 -0.000017 0
0.000003 -0.000006 0
0.000001 0.000004 0
-0.000000 0.000009 0
0.000000 0.000006 0
0.000001 0.000001 0
0.000000 -0.000001 0
-0.000001 -0.000002 0
-0.000001 -0.000001 0
-0.000001 -0.000000 0
-0.000000 -0.000000 0
0.000000 -0.000001 0
0.000000 -0.000000 0
0.000000 0.000000 0
0.000000 0.000001 0
-0.000000 0.000001 0
-0.000001 0.000000 0
-0.000000 -0.000001 0
-0.000000 -0.000001 0
0.000000 -0.000000 0
0.000000 0.000001 0
-0.000000 0.000001 0
-0.000000 -0.000000 0
0.000000 -0.000001 0
0.000000 -0.000001 0
0.000000 0.000000 0
0.000000 0.000001 0
-0.000000 0.000001 0
-0.000000 0.000000 0
-0.000000 -0.000000 0
-0.000000 -0.000001 0
-0.000000 -0.000000 0
0.000000 0.000000 0
0.000000 0.000002 0
0.000015 0.000010 0
-0.000001 0.000020 0
0.000005 0.000028 0
0.000024 0.000008 0
0.000021 -0.000034 0
0.000001 -0.000057 0
-0.000014 -0.000037 0
-0.000020 0.000002 0
-0.000015 0.000029 0
-0.000003 0.000033 0
0.000007 0.000020 0
0.000007 0.000004 0
0.000003 -0.000007 0
0.000001 -0.000012 0
0.000000 -0.000012 0
-0.000000 -0.000009 0
-0.000002 -0.000003 0
-0.000003 0.000004 0
-0.000003 0.000008 0
-0.000001 0.000006 0
0.000001 0.000001 0
0.000002 -0.000002 0
0.000001 -0.000002 0
0.000000 -0.000001 0
-0.000000 -0.000001 0
-0.000000 -0.000001 0
-0.000001 -0.000000 0
-0.000001 0.000001 0
-0.000000 0.000001 0
0.000000 0.000001 0
0.000001 -0.000000 0
0.000000 -0.000001 0
-0.000000 -0.000001 0
-0.000000 0.000000 0
-0.000000 0.000001 0
0.000000 0.000001 0
0.000000 -0.000000 0
-0.000000 -0.000001 0
-0.000000 -0.000001 0
-0.000000 0.000000 0
-0.000000 0.000001 0
0.000000 0.000001 0
0.000000 0.000000 0
0.000000 -0.000000 0
0.000000 -0.000001 0
0.000000 -0.000000 0
0.000000 0.000000 0
0.000000 -0.000001 0
0.000005 0.000003 0
0.000001 0.000012 0
0.000023 0.000015 0
0.000040 0.000004 0
0.000029 -0.000014 0
0.000004 -0.000026 0
-0.000019 -0.000022 0
-0.000034 -0.000003 0
-0.000030 0.000016 0
-0.000008 0.000023 0
0.000013 0.000013 0
0.000021 -0.000001 0
0.000015 -0.000009 0
0.000005 -0.000008 0
-0.000002 -0.000004 0
-0.000005 -0.000001 0
-0.000004 0.000000 0
-0.000003 0.000000 0
-0.000002 0.000001 0
-0.000000 0.000002 0
0.000001 0.000002 0
0.000002 0.000000 0
0.000002 -0.000001 0
0.000001 -0.000001 0
0.000000 -0.000001 0
-0.000000 -0.000001 0
-0.000001 -0.000000 0
-0.000001 0.000000 0
-0.000000 0.000001 0
0.000000 0.000001 0
0.000001 0.000000 0
0.000001 -0.000001 0
-0.000000 -0.000001 0
-0.000001 -0.000000 0
-0.000000 0.000000 0
0.000000 0.000000 0
0.000000 -0.000000 0
-0.000000 -0.000001 0
-0.000001 -0.000000 0
-0.000001 0.000000 0
-0.000000 0.000001 0
0.000000 0.000000 0
0.000001 0.000000 0
0.000001 -0.000000 0
0.000000 -0.000000 0
0.000000 -0.000000 0
0.000000 -0.000000 0
0.000000 0.000000 0
-0.000006 0.000000 0
-0.000006 0.000000 0
0.000004 0.000000 0
0.000004 0.000000 0
-0.000003 0.000000 0
-0.000001 0.000000 0
0.000003 0.000000 0
0.000001 0.000000 0
-0.000002 0.000000 0
-0.000002 0.000000 0
0.000000 0.000000 0
0.000001 0.000000 0
0.000001 0.000000 0
-0.000000 0.000000 0
-0.000001 0.000000 0
-0.000001 0.000000 0
0.000000 0.000000 0
0.000001 0.000000 0
0.000000 0.000000 0
-0.000000 0.000000 0
-0.000001 0.000000 0
-0.000000 0.000000 0
0.000000 0.000000 0
0.000000 0.000000 0
0.000000 0.000000 0
-0.000000 0.000000 0
0.000000 0.000000 0
-0.000000 0.000000 0
-0.000000 0.000000 0
-0.000000 0.000000 0
0.000000 0.000000 0
0.000000 0.000000 0
0.000000 0.000000 0
-0.000000 0.000000 0
-0.000000 0.000000 0
0.000000 0.000000 0
0.000000 0.000000 0
-0.000000 0.000000 0
-0.000000 0.000000 0
0.000000 0.000000 0
0.000000 0.000000 0
0.000000 0.000000 0
-0.000000 0.000000 0
-0.000000 0.000000 0
0.000000 0.000000 0
-0.000000 0.000000 0
0.000000 0.000000 0

CELL_DATA 235 
SCALARS pressure float 1 
LOOKUP_TABLE default 
0.212029
0.212010
0.211972
0.211986
0.212026
0.212043
0.212032
0.212018
0.212009
0.212003
0.212003
0.212006
0.212009
0.212011
0.212015
0.212018
0.212017
0.212013
0.212009
0.212007
0.212009
0.212011
0.212012
0.212012
0.212012
0.212011
0.212011
0.212011
0.212010
0.212011
0.212011
0.212011
0.212011
0.212011
0.212011
0.212011
0.212011
0.212011
0.212011
0.212011
0.212011
0.212011
0.212011
0.212011
0.212011
0.212011
0.212011
0.133576
0.133538
0.133546
0.133570
0.133568
0.133562
0.133574
0.133579
0.133562
0.133546
0.133549
0.133561
0.133570
0.133570
0.133563
0.133559
0.133561
0.133567
0.133568
0.133565
0.133562
0.133561
0.133562
0.133564
0.133565
0.133565
0.133565
0.133564
0.133564
0.133563
0.133563
0.133564
0.133564
0.133564
0.133564
0.133564
0.133564
0.133564
0.133564
0.133564
0.133564
0.133564
0.133564
0.133564
0.133564
0.133564
0.133564
0.055091
0.055077
0.055101
0.055115
0.055095
0.055078
0.055084
0.055097
0.055101
0.055096
0.055087
0.055084
0.055091
0.055101
0.055102
0.055095
0.055088
0.055089
0.055094
0.055098
0.055098
0.055095
0.055093
0.055093
0.055094
0.055095
0.055095
0.055095
0.055096
0.055095
0.055095
0.055094
0.055095
0.055095
0.055095
0.055095
0.055095
0.055095
0.055095
0.055095
0.055095
0.055095
0.055095
0.055095
0.055095
0.055095
0.055095
-0.023397
-0.023391
-0.023379
-0.023385
-0.023398
-0.023403
-0.023407
-0.023408
-0.023396
-0.023382
-0.023382
-0.023393
-0.023401
-0.023401
-0.023396
-0.023393
-0.023394
-0.023398
-0.023399
-0.023397
-0.023393
-0.023393
-0.023395
-0.023396
-0.023397
-0.023397
-0.023396
-0.023396
-0.023395
-0.023395
-0.023395
-0.023396
-0.023396
-0.023396
-0.023396
-0.023396
-0.023396
-0.023396
-0.023396
-0.023396
-0.023396
-0.023396
-0.023396
-0.023396
-0.023396
-0.023396
-0.023396
-0.101901
-0.101892
-0.101879
-0.101891
-0.101913
-0.101921
-0.101920
-0.101916
-0.101905
-0.101891
-0.101887
-0.101894
-0.101906
-0.101913
-0.101914
-0.101911
-0.101908
-0.101907
-0.101907
-0.101908
-0.101907
-0.101907
-0.101908
-0.101908
-0.101909
-0.101909
-0.101909
-0.101909
-0.101908
-0.101908
-0.101908
-0.101909
-0.101909
-0.101909
-0.101909
-0.101909
-0.101909
-0.101909
-0.101909
-0.101909
-0.101909
-0.101909
-0.101909
-0.101909
-0.101909
-0.101909
-0.101909

SCALARS temperature float 1 
LOOKUP_TABLE default 
0.298052
0.309921
0.308978
0.285877
0.246528
0.206443
0.203771
0.244165
0.290487
0.320675
0.327555
0.316121
0.299692
0.289283
0.290560
0.298185
0.305827
0.311007
0.313875
0.314983
0.314598
0.313520
0.312943
0.313393
0.314060
0.314413
0.314859
0.315952
0.317363
0.318246
0.318035
0.317091
0.316558
0.317353
0.318730
0.319399
0.318905
0.317831
0.317756
0.319003
0.320109
0.320439
0.320155
0.319647
0.319273
0.319422
0.319907
0.187223
0.210437
0.211163
0.160258
0.072251
-0.005721
-0.012899
0.056585
0.145012
0.204648
0.213134
0.179544
0.138449
0.114710
0.115580
0.129242
0.143463
0.153483
0.159272
0.160047
0.156557
0.152212
0.149838
0.149866
0.150381
0.150003
0.149900
0.151889
0.154617
0.155666
0.154406
0.151853
0.150202
0.151377
0.154072
0.155156
0.153647
0.151116
0.150657
0.152917
0.155352
0.156005
0.154966
0.153403
0.152251
0.152203
0.152973
0.060489
0.096589
0.114911
0.066556
-0.037752
-0.130374
-0.142398
-0.066390
0.038537
0.102568
0.102782
0.054579
-0.002152
-0.033970
-0.035375
-0.020686
-0.004401
0.007765
0.014365
0.014688
0.009756
0.003428
-0.000247
-0.000570
-0.000323
-0.001184
-0.001420
0.000687
0.003753
0.005018
0.003156
-0.000457
-0.002506
-0.001175
0.001860
0.003137
0.001079
-0.002099
-0.002717
-0.000097
0.002933
0.003738
0.002256
0.000049
-0.001495
-0.001672
-0.000934
-0.096785
-0.056287
-0.023106
-0.052921
-0.135990
-0.217225
-0.232282
-0.169151
-0.085888
-0.035116
-0.041817
-0.090479
-0.141797
-0.169679
-0.173036
-0.163176
-0.151434
-0.142173
-0.136859
-0.136932
-0.141822
-0.147613
-0.150653
-0.151187
-0.151339
-0.152193
-0.152645
-0.151302
-0.148819
-0.147886
-0.149721
-0.152712
-0.154400
-0.153593
-0.151235
-0.150211
-0.152081
-0.154588
-0.155093
-0.153221
-0.150731
-0.150039
-0.151408
-0.153412
-0.154660
-0.154916
-0.154443
-0.285639
-0.262611
-0.237642
-0.252662
-0.295393
-0.331889
-0.339389
-0.312839
-0.274218
-0.246070
-0.251756
-0.280341
-0.306046
-0.318998
-0.321372
-0.318232
-0.314354
-0.310806
-0.308622
-0.308900
-0.311467
-0.314442
-0.316089
-0.316575
-0.316830
-0.317441
-0.317905
-0.317537
-0.316551
-0.316230
-0.317232
-0.318704
-0.319484
-0.319253
-0.318345
-0.317955
-0.318919
-0.320012
-0.320246
-0.319560
-0.318475
-0.318199
-0.318945
-0.319937
-0.320526
-0.320716
-0.320630


SCALARS Species_1 float 1 
LOOKUP_TABLE default 
0.000000
0.000000
0.000000
0.000000
0.000000
0.000000
0.000000
0.000000
0.000000
0.000000
0.000000
0.000000
0.000000
0.000000
0.000000
0.000000
0.000000
0.000000
0.000000
0.000000
0.000000
0.000000
0.000000
0.000000
0.000000
0.000000
0.000000
0.000000
0.000000
0.000000
0.000000
0.000000
0.000000
0.000000
0.000000
0.000000
0.000000
0.000000
0.000000
0.000000
0.000000
0.000000
0.000000
0.000000
0.000000
0.000000
0.000000
0.000000
0.000000
0.000000
0.000000
0.000000
0.000000
0.000000
0.000000
0.000000
0.000000
0.000000
0.000000
0.000000
0.000000
0.000000
0.000000
0.000000
0.000000
0.000000
0.000000
0.000000
0.000000
0.000000
0.000000
0.000000
0.000000
0.000000
0.000000
0.000000
0.000000
0.000000
0.000000
0.000000
0.000000
0.000000
0.000000
0.000000
0.000000
0.000000
0.000000
0.000000
0.000000
0.000000
0.000000
0.000000
0.000000
0.000000
0.000000
0.000000
0.000000
0.000000
0.000000
0.000000
0.000000
0.000000
0.000000
0.000000
0.000000
0.000000
0.000000
0.000000
0.000000
0.000000
0.000000
0.000000
0.000000
0.000000
0.000000
0.000000
0.000000
0.000000
0.000000
0.000000
0.000000
0.000000
0.000000
0.000000
0.000000
0.000000
0.000000
0.000000
0.000000
0.000000
0.000000
0.000000
0.000000
0.000000
0.000000
0.000000
0.000000
0.000000
0.000000
0.000000
0.000000
0.000000
0.000000
0.000000
0.000000
0.000000
0.000000
0.000000
0.000000
0.000000
0.000000
0.000000
0.000000
0.000000
0.000000
0.000000
0.000000
0.000000
0.000000
0.000000
0.000000
0.000000
0.000000
0.000000
0.000000
0.000000
0.000000
0.000000
0.000000
0.000000
0.000000
0.000000
0.000000
0.000000
0.000000
0.000000
0.000000
0.000000
0.000000
0.000000
0.000000
0.000000
0.000000
0.000000
0.000000
0.000000
0.000000
0.000000
0.000000
0.000000
0.000000
0.000000
0.000000
0.000000
0.000000
0.000000
0.000000
0.000000
0.000000
0.000000
0.000000
0.000000
0.000000
0.000000
0.000000
0.000000
0.000000
0.000000
0.000000
0.000000
0.000000
0.000000
0.000000
0.000000
0.000000
0.000000
0.000000
0.000000
0.000000
0.000000
0.000000
0.000000
0.000000
0.000000
0.000000
0.000000
0.000000
0.000000
0.000000
0.000000
0.000000
0.000000
0.000000
0.000000
0.000000


SCALARS Species_2 float 1 
LOOKUP_TABLE default 
0.000000
0.000000
0.000000
0.000000
0.000000
0.000000
0.000000
0.000000
0.000000
0.000000
0.000000
0.000000
0.000000
0.000000
0.000000
0.000000
0.000000
0.000000
0.000000
0.000000
0.000000
0.000000
0.000000
0.000000
0.000000
0.000000
0.000000
0.000000
0.000000
0.000000
0.000000
0.000000
0.000000
0.000000
0.000000
0.000000
0.000000
0.000000
0.000000
0.000000
0.000000
0.000000
0.000000
0.000000
0.000000
0.000000
0.000000
0.000000
0.000000
0.000000
0.000000
0.000000
0.000000
0.000000
0.000000
0.000000
0.000000
0.000000
0.000000
0.000000
0.000000
0.000000
0.000000
0.000000
0.000000
0.000000
0.000000
0.000000
0.000000
0.000000
0.000000
0.000000
0.000000
0.000000
0.000000
0.000000
0.000000
0.000000
0.000000
0.000000
0.000000
0.000000
0.000000
0.000000
0.000000
0.000000
0.000000
0.000000
0.000000
0.000000
0.000000
0.000000
0.000000
0.000000
0.000000
0.000000
0.000000
0.000000
0.000000
0.000000
0.000000
0.000000
0.000000
0.000000
0.000000
0.000000
0.000000
0.000000
0.000000
0.000000
0.000000
0.000000
0.000000
0.000000
0.000000
0.000000
0.000000
0.000000
0.000000
0.000000
0.000000
0.000000
0.000000
0.000000
0.000000
0.000000
0.000000
0.000000
0.000000
0.000000
0.000000
0.000000
0.000000
0.000000
0.000000
0.000000
0.000000
0.000000
0.000000
0.000000
0.000000
0.000000
0.000000
0.000000
0.000000
0.000000
0.000000
0.000000
0.000000
0.000000
0.000000
0.000000
0.000000
0.000000
0.000000
0.000000
0.000000
0.000000
0.000000
0.000000
0.000000
0.000000
0.000000
0.000000
0.000000
0.000000
0.000000
0.000000
0.000000
0.000000
0.000000
0.000000
0.000000
0.000000
0.000000
0.000000
0.000000
0.000000
0.000000
0.000000
0.000000
0.000000
0.000000
0.000000
0.000000
0.000000
0.000000
0.000000
0.000000
0.000000
0.000000
0.000000
0.000000
0.000000
0.000000
0.000000
0.000000
0.000000
0.000000
0.000000
0.000000
0.000000
0.000000
0.000000
0.000000
0.000000
0.000000
0.000000
0.000000
0.000000
0.000000
0.000000
0.000000
0.000000
0.000000
0.000000
0.000000
0.000000
0.000000
0.000000
0.000000
0.000000
0.000000
0.000000
0.000000
0.000000
0.000000
0.000000
0.000000
0.000000
0.000000
0.000000
0.000000
0.000000
0.000000


SCALARS Species_3 float 1 
LOOKUP_TABLE default 
0.000000
0.000000
0.000000
0.000000
0.000000
0.000000
0.000000
0.000000
0.000000
0.000000
0.000000
0.000000
0.000000
0.000000
0.000000
0.000000
0.000000
0.000000
0.000000
0.000000
0.000000
0.000000
0.000000
0.000000
0.000000
0.000000
0.000000
0.000000
0.000000
0.000000
0.000000
0.000000
0.000000
0.000000
0.000000
0.000000
0.000000
0.000000
0.000000
0.000000
0.000000
0.000000
0.000000
0.000000
0.000000
0.000000
0.000000
0.000000
0.000000
0.000000
0.000000
0.000000
0.000000
0.000000
0.000000
0.000000
0.000000
0.000000
0.000000
0.000000
0.000000
0.000000
0.000000
0.000000
0.000000
0.000000
0.000000
0.000000
0.000000
0.000000
0.000000
0.000000
0.000000
0.000000
0.000000
0.000000
0.000000
0.000000
0.000000
0.000000
0.000000
0.000000
0.000000
0.000000
0.000000
0.000000
0.000000
0.000000
0.000000
0.000000
0.000000
0.000000
0.000000
0.000000
0.000000
0.000000
0.000000
0.000000
0.000000
0.000000
0.000000
0.000000
0.000000
0.000000
0.000000
0.000000
0.000000
0.000000
0.000000
0.000000
0.000000
0.000000
0.000000
0.000000
0.000000
0.000000
0.000000
0.000000
0.000000
0.000000
0.000000
0.000000
0.000000
0.000000
0.000000
0.000000
0.000000
0.000000
0.000000
0.000000
0.000000
0.000000
0.000000
0.000000
0.000000
0.000000
0.000000
0.000000
0.000000
0.000000
0.000000
0.000000
0.000000
0.000000
0.000000
0.000000
0.000000
0.000000
0.000000
0.000000
0.000000
0.000000
0.000000
0.000000
0.000000
0.000000
0.000000
0.000000
0.000000
0.000000
0.000000
0.000000
0.000000
0.000000
0.000000
0.000000
0.000000
0.000000
0.000000
0.000000
0.000000
0.000000
0.000000
0.000000
0.000000
0.000000
0.000000
0.000000
0.000000
0.000000
0.000000
0.000000
0.000000
0.000000
0.000000
0.000000
0.000000
0.000000
0.000000
0.000000
0.000000
0.000000
0.000000
0.000000
0.000000
0.000000
0.000000
0.000000
0.000000
0.000000
0.000000
0.000000
0.000000
0.000000
0.000000
0.000000
0.000000
0.000000
0.000000
0.000000
0.000000
0.000000
0.000000
0.000000
0.000000
0.000000
0.000000
0.000000
0.000000
0.000000
0.000000
0.000000
0.000000
0.000000
0.000000
0.000000
0.000000
0.000000
0.000000
0.000000
0.000000
0.000000
0.000000
0.000000
0.000000


SCALARS Species_4 float 1 
LOOKUP_TABLE default 
0.000000
0.000000
0.000000
0.000000
0.000000
0.000000
0.000000
0.000000
0.000000
0.000000
0.000000
0.000000
0.000000
0.000000
0.000000
0.000000
0.000000
0.000000
0.000000
0.000000
0.000000
0.000000
0.000000
0.000000
0.000000
0.000000
0.000000
0.000000
0.000000
0.000000
0.000000
0.000000
0.000000
0.000000
0.000000
0.000000
0.000000
0.000000
0.000000
0.000000
0.000000
0.000000
0.000000
0.000000
0.000000
0.000000
0.000000
0.000000
0.000000
0.000000
0.000000
0.000000
0.000000
0.000000
0.000000
0.000000
0.000000
0.000000
0.000000
0.000000
0.000000
0.000000
0.000000
0.000000
0.000000
0.000000
0.000000
0.000000
0.000000
0.000000
0.000000
0.000000
0.000000
0.000000
0.000000
0.000000
0.000000
0.000000
0.000000
0.000000
0.000000
0.000000
0.000000
0.000000
0.000000
0.000000
0.000000
0.000000
0.000000
0.000000
0.000000
0.000000
0.000000
0.000000
0.000000
0.000000
0.000000
0.000000
0.000000
0.000000
0.000000
0.000000
0.000000
0.000000
0.000000
0.000000
0.000000
0.000000
0.000000
0.000000
0.000000
0.000000
0.000000
0.000000
0.000000
0.000000
0.000000
0.000000
0.000000
0.000000
0.000000
0.000000
0.000000
0.000000
0.000000
0.000000
0.000000
0.000000
0.000000
0.000000
0.000000
0.000000
0.000000
0.000000
0.000000
0.000000
0.000000
0.000000
0.000000
0.000000
0.000000
0.000000
0.000000
0.000000
0.000000
0.000000
0.000000
0.000000
0.000000
0.000000
0.000000
0.000000
0.000000
0.000000
0.000000
0.000000
0.000000
0.000000
0.000000
0.000000
0.000000
0.000000
0.000000
0.000000
0.000000
0.000000
0.000000
0.000000
0.000000
0.000000
0.000000
0.000000
0.000000
0.000000
0.000000
0.000000
0.000000
0.000000
0.000000
0.000000
0.000000
0.000000
0.000000
0.000000
0.000000
0.000000
0.000000
0.000000
0.000000
0.000000
0.000000
0.000000
0.000000
0.000000
0.000000
0.000000
0.000000
0.000000
0.000000
0.000000
0.000000
0.000000
0.000000
0.000000
0.000000
0.000000
0.000000
0.000000
0.000000
0.000000
0.000000
0.000000
0.000000
0.000000
0.000000
0.000000
0.000000
0.000000
0.000000
0.000000
0.000000
0.000000
0.000000
0.000000
0.000000
0.000000
0.000000
0.000000
0.000000
0.000000
0.000000
0.000000
0.000000
0.000000
0.000000
