# vtk DataFile Version 2.0
generated by CFD-lab course output (written by Tobias Neckel) 
ASCII

DATASET STRUCTURED_GRID
DIMENSIONS  48 6 1 
POINTS 288 float

0.000000 0.000000 0
0.202128 0.000000 0
0.404255 0.000000 0
0.606383 0.000000 0
0.808511 0.000000 0
1.010638 0.000000 0
1.212766 0.000000 0
1.414894 0.000000 0
1.617021 0.000000 0
1.819149 0.000000 0
2.021277 0.000000 0
2.223404 0.000000 0
2.425532 0.000000 0
2.627660 0.000000 0
2.829787 0.000000 0
3.031915 0.000000 0
3.234043 0.000000 0
3.436170 0.000000 0
3.638298 0.000000 0
3.840426 0.000000 0
4.042553 0.000000 0
4.244681 0.000000 0
4.446809 0.000000 0
4.648936 0.000000 0
4.851064 0.000000 0
5.053191 0.000000 0
5.255319 0.000000 0
5.457447 0.000000 0
5.659574 0.000000 0
5.861702 0.000000 0
6.063830 0.000000 0
6.265957 0.000000 0
6.468085 0.000000 0
6.670213 0.000000 0
6.872340 0.000000 0
7.074468 0.000000 0
7.276596 0.000000 0
7.478723 0.000000 0
7.680851 0.000000 0
7.882979 0.000000 0
8.085106 0.000000 0
8.287234 0.000000 0
8.489362 0.000000 0
8.691489 0.000000 0
8.893617 0.000000 0
9.095745 0.000000 0
9.297872 0.000000 0
9.500000 0.000000 0
0.000000 0.200000 0
0.202128 0.200000 0
0.404255 0.200000 0
0.606383 0.200000 0
0.808511 0.200000 0
1.010638 0.200000 0
1.212766 0.200000 0
1.414894 0.200000 0
1.617021 0.200000 0
1.819149 0.200000 0
2.021277 0.200000 0
2.223404 0.200000 0
2.425532 0.200000 0
2.627660 0.200000 0
2.829787 0.200000 0
3.031915 0.200000 0
3.234043 0.200000 0
3.436170 0.200000 0
3.638298 0.200000 0
3.840426 0.200000 0
4.042553 0.200000 0
4.244681 0.200000 0
4.446809 0.200000 0
4.648936 0.200000 0
4.851064 0.200000 0
5.053191 0.200000 0
5.255319 0.200000 0
5.457447 0.200000 0
5.659574 0.200000 0
5.861702 0.200000 0
6.063830 0.200000 0
6.265957 0.200000 0
6.468085 0.200000 0
6.670213 0.200000 0
6.872340 0.200000 0
7.074468 0.200000 0
7.276596 0.200000 0
7.478723 0.200000 0
7.680851 0.200000 0
7.882979 0.200000 0
8.085106 0.200000 0
8.287234 0.200000 0
8.489362 0.200000 0
8.691489 0.200000 0
8.893617 0.200000 0
9.095745 0.200000 0
9.297872 0.200000 0
9.500000 0.200000 0
0.000000 0.400000 0
0.202128 0.400000 0
0.404255 0.400000 0
0.606383 0.400000 0
0.808511 0.400000 0
1.010638 0.400000 0
1.212766 0.400000 0
1.414894 0.400000 0
1.617021 0.400000 0
1.819149 0.400000 0
2.021277 0.400000 0
2.223404 0.400000 0
2.425532 0.400000 0
2.627660 0.400000 0
2.829787 0.400000 0
3.031915 0.400000 0
3.234043 0.400000 0
3.436170 0.400000 0
3.638298 0.400000 0
3.840426 0.400000 0
4.042553 0.400000 0
4.244681 0.400000 0
4.446809 0.400000 0
4.648936 0.400000 0
4.851064 0.400000 0
5.053191 0.400000 0
5.255319 0.400000 0
5.457447 0.400000 0
5.659574 0.400000 0
5.861702 0.400000 0
6.063830 0.400000 0
6.265957 0.400000 0
6.468085 0.400000 0
6.670213 0.400000 0
6.872340 0.400000 0
7.074468 0.400000 0
7.276596 0.400000 0
7.478723 0.400000 0
7.680851 0.400000 0
7.882979 0.400000 0
8.085106 0.400000 0
8.287234 0.400000 0
8.489362 0.400000 0
8.691489 0.400000 0
8.893617 0.400000 0
9.095745 0.400000 0
9.297872 0.400000 0
9.500000 0.400000 0
0.000000 0.600000 0
0.202128 0.600000 0
0.404255 0.600000 0
0.606383 0.600000 0
0.808511 0.600000 0
1.010638 0.600000 0
1.212766 0.600000 0
1.414894 0.600000 0
1.617021 0.600000 0
1.819149 0.600000 0
2.021277 0.600000 0
2.223404 0.600000 0
2.425532 0.600000 0
2.627660 0.600000 0
2.829787 0.600000 0
3.031915 0.600000 0
3.234043 0.600000 0
3.436170 0.600000 0
3.638298 0.600000 0
3.840426 0.600000 0
4.042553 0.600000 0
4.244681 0.600000 0
4.446809 0.600000 0
4.648936 0.600000 0
4.851064 0.600000 0
5.053191 0.600000 0
5.255319 0.600000 0
5.457447 0.600000 0
5.659574 0.600000 0
5.861702 0.600000 0
6.063830 0.600000 0
6.265957 0.600000 0
6.468085 0.600000 0
6.670213 0.600000 0
6.872340 0.600000 0
7.074468 0.600000 0
7.276596 0.600000 0
7.478723 0.600000 0
7.680851 0.600000 0
7.882979 0.600000 0
8.085106 0.600000 0
8.287234 0.600000 0
8.489362 0.600000 0
8.691489 0.600000 0
8.893617 0.600000 0
9.095745 0.600000 0
9.297872 0.600000 0
9.500000 0.600000 0
0.000000 0.800000 0
0.202128 0.800000 0
0.404255 0.800000 0
0.606383 0.800000 0
0.808511 0.800000 0
1.010638 0.800000 0
1.212766 0.800000 0
1.414894 0.800000 0
1.617021 0.800000 0
1.819149 0.800000 0
2.021277 0.800000 0
2.223404 0.800000 0
2.425532 0.800000 0
2.627660 0.800000 0
2.829787 0.800000 0
3.031915 0.800000 0
3.234043 0.800000 0
3.436170 0.800000 0
3.638298 0.800000 0
3.840426 0.800000 0
4.042553 0.800000 0
4.244681 0.800000 0
4.446809 0.800000 0
4.648936 0.800000 0
4.851064 0.800000 0
5.053191 0.800000 0
5.255319 0.800000 0
5.457447 0.800000 0
5.659574 0.800000 0
5.861702 0.800000 0
6.063830 0.800000 0
6.265957 0.800000 0
6.468085 0.800000 0
6.670213 0.800000 0
6.872340 0.800000 0
7.074468 0.800000 0
7.276596 0.800000 0
7.478723 0.800000 0
7.680851 0.800000 0
7.882979 0.800000 0
8.085106 0.800000 0
8.287234 0.800000 0
8.489362 0.800000 0
8.691489 0.800000 0
8.893617 0.800000 0
9.095745 0.800000 0
9.297872 0.800000 0
9.500000 0.800000 0
0.000000 1.000000 0
0.202128 1.000000 0
0.404255 1.000000 0
0.606383 1.000000 0
0.808511 1.000000 0
1.010638 1.000000 0
1.212766 1.000000 0
1.414894 1.000000 0
1.617021 1.000000 0
1.819149 1.000000 0
2.021277 1.000000 0
2.223404 1.000000 0
2.425532 1.000000 0
2.627660 1.000000 0
2.829787 1.000000 0
3.031915 1.000000 0
3.234043 1.000000 0
3.436170 1.000000 0
3.638298 1.000000 0
3.840426 1.000000 0
4.042553 1.000000 0
4.244681 1.000000 0
4.446809 1.000000 0
4.648936 1.000000 0
4.851064 1.000000 0
5.053191 1.000000 0
5.255319 1.000000 0
5.457447 1.000000 0
5.659574 1.000000 0
5.861702 1.000000 0
6.063830 1.000000 0
6.265957 1.000000 0
6.468085 1.000000 0
6.670213 1.000000 0
6.872340 1.000000 0
7.074468 1.000000 0
7.276596 1.000000 0
7.478723 1.000000 0
7.680851 1.000000 0
7.882979 1.000000 0
8.085106 1.000000 0
8.287234 1.000000 0
8.489362 1.000000 0
8.691489 1.000000 0
8.893617 1.000000 0
9.095745 1.000000 0
9.297872 1.000000 0
9.500000 1.000000 0
POINT_DATA 288 

VECTORS velocity float
0.000000 0.000000 0
-0.000095 0.000000 0
-0.000003 0.000000 0
0.000054 0.000000 0
0.000006 0.000000 0
-0.000028 0.000000 0
-0.000004 0.000000 0
0.000014 0.000000 0
0.000001 0.000000 0
-0.000006 0.000000 0
0.000002 0.000000 0
0.000004 0.000000 0
-0.000002 0.000000 0
-0.000002 0.000000 0
0.000002 0.000000 0
0.000002 0.000000 0
-0.000001 0.000000 0
-0.000001 0.000000 0
0.000001 0.000000 0
0.000001 0.000000 0
-0.000000 0.000000 0
-0.000000 0.000000 0
0.000000 0.000000 0
0.000000 0.000000 0
-0.000000 0.000000 0
-0.000000 0.000000 0
0.000000 0.000000 0
-0.000000 0.000000 0
-0.000000 0.000000 0
-0.000000 0.000000 0
0.000000 0.000000 0
0.000000 0.000000 0
0.000000 0.000000 0
0.000000 0.000000 0
0.000000 0.000000 0
0.000000 0.000000 0
-0.000000 0.000000 0
-0.000000 0.000000 0
0.000000 0.000000 0
0.000000 0.000000 0
-0.000000 0.000000 0
-0.000000 0.000000 0
0.000000 0.000000 0
0.000000 0.000000 0
0.000000 0.000000 0
0.000000 0.000000 0
0.000000 0.000000 0
0.000000 0.000000 0
0.000000 -0.000074 0
-0.000096 -0.000054 0
-0.000023 0.000005 0
0.000043 0.000061 0
0.000011 0.000030 0
-0.000022 -0.000009 0
-0.000005 -0.000000 0
0.000011 0.000014 0
0.000000 0.000003 0
-0.000005 -0.000006 0
0.000003 -0.000000 0
0.000004 0.000003 0
-0.000002 -0.000001 0
-0.000003 -0.000002 0
0.000001 0.000001 0
0.000002 0.000001 0
-0.000001 -0.000001 0
-0.000001 -0.000001 0
0.000000 -0.000000 0
0.000001 0.000001 0
-0.000000 -0.000000 0
-0.000000 -0.000000 0
0.000000 -0.000000 0
0.000000 0.000000 0
-0.000000 -0.000000 0
-0.000000 -0.000000 0
-0.000000 0.000000 0
-0.000000 0.000000 0
-0.000000 0.000000 0
-0.000000 0.000000 0
-0.000000 0.000000 0
-0.000000 0.000000 0
-0.000000 -0.000000 0
-0.000000 -0.000000 0
-0.000000 -0.000000 0
-0.000000 -0.000000 0
-0.000000 -0.000000 0
-0.000000 -0.000000 0
-0.000000 -0.000000 0
-0.000000 0.000000 0
-0.000000 0.000000 0
-0.000000 0.000000 0
-0.000000 -0.000000 0
-0.000000 -0.000000 0
-0.000000 -0.000000 0
-0.000000 -0.000000 0
-0.000000 -0.000000 0
0.000000 -0.000000 0
0.000000 -0.000028 0
-0.000048 -0.000021 0
0.000042 0.000035 0
0.000017 0.000025 0
-0.000030 -0.000009 0
-0.000011 -0.000008 0
0.000014 0.000007 0
0.000002 0.000006 0
-0.000011 -0.000001 0
-0.000001 0.000002 0
0.000007 0.000004 0
-0.000000 -0.000000 0
-0.000004 -0.000003 0
0.000001 0.000000 0
0.000002 0.000002 0
-0.000001 0.000000 0
-0.000002 -0.000001 0
0.000000 -0.000000 0
0.000001 0.000000 0
-0.000000 -0.000000 0
-0.000001 -0.000000 0
0.000000 -0.000000 0
0.000000 0.000000 0
-0.000000 -0.000000 0
-0.000000 -0.000000 0
-0.000000 -0.000000 0
-0.000000 -0.000000 0
-0.000000 -0.000000 0
-0.000000 -0.000000 0
-0.000000 0.000000 0
-0.000000 0.000000 0
-0.000000 0.000000 0
-0.000000 -0.000000 0
-0.000000 -0.000000 0
-0.000000 0.000000 0
-0.000000 0.000000 0
-0.000000 -0.000000 0
-0.000000 -0.000000 0
-0.000000 -0.000000 0
-0.000000 -0.000000 0
-0.000000 0.000000 0
-0.000000 0.000000 0
-0.000000 -0.000000 0
-0.000000 -0.000000 0
-0.000000 -0.000000 0
-0.000000 -0.000000 0
-0.000000 -0.000000 0
0.000000 -0.000000 0
0.000000 0.000010 0
0.000009 0.000004 0
0.000047 0.000010 0
-0.000010 -0.000008 0
-0.000029 -0.000007 0
0.000005 0.000003 0
0.000015 0.000002 0
-0.000005 -0.000004 0
-0.000008 -0.000002 0
0.000004 0.000003 0
0.000003 0.000002 0
-0.000004 -0.000000 0
-0.000002 -0.000000 0
0.000003 0.000000 0
0.000002 -0.000000 0
-0.000001 -0.000001 0
-0.000001 -0.000000 0
0.000001 0.000000 0
0.000001 0.000000 0
-0.000001 -0.000000 0
-0.000000 -0.000000 0
0.000000 0.000000 0
0.000000 -0.000000 0
-0.000000 -0.000000 0
-0.000000 0.000000 0
0.000000 0.000000 0
0.000000 -0.000000 0
-0.000000 -0.000000 0
0.000000 -0.000000 0
0.000000 -0.000000 0
0.000000 -0.000000 0
0.000000 -0.000000 0
0.000000 -0.000000 0
0.000000 -0.000000 0
0.000000 -0.000000 0
0.000000 0.000000 0
0.000000 0.000000 0
0.000000 -0.000000 0
0.000000 -0.000000 0
0.000000 -0.000000 0
0.000000 0.000000 0
0.000000 0.000000 0
0.000000 -0.000000 0
0.000000 -0.000000 0
0.000000 -0.000000 0
0.000000 -0.000000 0
0.000000 -0.000000 0
0.000000 0.000000 0
0.000000 0.000008 0
0.000028 0.000004 0
0.000033 -0.000004 0
-0.000015 -0.000004 0
-0.000017 0.000001 0
0.000009 0.000002 0
0.000008 -0.000001 0
-0.000006 -0.000002 0
-0.000003 -0.000000 0
0.000005 -0.000000 0
0.000001 -0.000000 0
-0.000004 0.000000 0
-0.000001 0.000001 0
0.000003 0.000000 0
0.000001 -0.000000 0
-0.000001 -0.000000 0
-0.000000 0.000000 0
0.000001 -0.000000 0
0.000000 -0.000000 0
-0.000000 -0.000000 0
0.000000 0.000000 0
0.000000 0.000000 0
0.000000 -0.000000 0
-0.000000 -0.000000 0
0.000000 0.000000 0
0.000000 0.000000 0
0.000000 -0.000000 0
0.000000 -0.000000 0
0.000000 0.000000 0
0.000000 0.000000 0
0.000000 -0.000000 0
0.000000 -0.000000 0
0.000000 -0.000000 0
0.000000 -0.000000 0
0.000000 -0.000000 0
0.000000 0.000000 0
0.000000 0.000000 0
0.000000 -0.000000 0
0.000000 -0.000000 0
0.000000 -0.000000 0
0.000000 0.000000 0
0.000000 0.000000 0
0.000000 0.000000 0
0.000000 -0.000000 0
0.000000 -0.000000 0
0.000000 -0.000000 0
0.000000 -0.000000 0
0.000000 0.000000 0
0.000000 0.000000 0
0.000036 0.000000 0
0.000006 0.000000 0
-0.000019 0.000000 0
-0.000003 0.000000 0
0.000009 0.000000 0
-0.000000 0.000000 0
-0.000006 0.000000 0
0.000001 0.000000 0
0.000003 0.000000 0
-0.000001 0.000000 0
-0.000002 0.000000 0
0.000001 0.000000 0
0.000001 0.000000 0
-0.000001 0.000000 0
-0.000001 0.000000 0
0.000000 0.000000 0
0.000001 0.000000 0
-0.000000 0.000000 0
-0.000000 0.000000 0
0.000000 0.000000 0
0.000000 0.000000 0
-0.000000 0.000000 0
-0.000000 0.000000 0
0.000000 0.000000 0
0.000000 0.000000 0
-0.000000 0.000000 0
-0.000000 0.000000 0
0.000000 0.000000 0
-0.000000 0.000000 0
0.000000 0.000000 0
0.000000 0.000000 0
-0.000000 0.000000 0
-0.000000 0.000000 0
0.000000 0.000000 0
0.000000 0.000000 0
-0.000000 0.000000 0
-0.000000 0.000000 0
0.000000 0.000000 0
0.000000 0.000000 0
0.000000 0.000000 0
-0.000000 0.000000 0
0.000000 0.000000 0
0.000000 0.000000 0
0.000000 0.000000 0
-0.000000 0.000000 0
-0.000000 0.000000 0
0.000000 0.000000 0

CELL_DATA 235 
SCALARS pressure float 1 
LOOKUP_TABLE default 
0.211907
0.212052
0.212104
0.212019
0.211982
0.212024
0.212042
0.212021
0.212013
0.212021
0.212020
0.212012
0.212014
0.212019
0.212017
0.212013
0.212013
0.212016
0.212015
0.212014
0.212014
0.212015
0.212015
0.212014
0.212014
0.212014
0.212014
0.212014
0.212014
0.212014
0.212014
0.212014
0.212014
0.212014
0.212014
0.212014
0.212014
0.212014
0.212014
0.212014
0.212014
0.212014
0.212014
0.212014
0.212014
0.212014
0.212014
0.133553
0.133621
0.133539
0.133502
0.133554
0.133578
0.133555
0.133550
0.133568
0.133570
0.133558
0.133558
0.133564
0.133563
0.133559
0.133560
0.133563
0.133562
0.133561
0.133561
0.133562
0.133562
0.133561
0.133561
0.133561
0.133561
0.133561
0.133561
0.133561
0.133561
0.133561
0.133561
0.133561
0.133561
0.133561
0.133561
0.133561
0.133561
0.133561
0.133561
0.133561
0.133562
0.133562
0.133562
0.133562
0.133562
0.133562
0.055158
0.055100
0.055016
0.055058
0.055113
0.055094
0.055067
0.055082
0.055097
0.055088
0.055084
0.055092
0.055094
0.055088
0.055086
0.055090
0.055091
0.055089
0.055088
0.055089
0.055090
0.055089
0.055089
0.055089
0.055089
0.055089
0.055089
0.055089
0.055089
0.055089
0.055089
0.055089
0.055089
0.055089
0.055089
0.055089
0.055089
0.055089
0.055089
0.055089
0.055089
0.055089
0.055089
0.055089
0.055089
0.055089
0.055089
-0.023329
-0.023411
-0.023449
-0.023401
-0.023379
-0.023404
-0.023411
-0.023397
-0.023395
-0.023404
-0.023402
-0.023394
-0.023395
-0.023400
-0.023400
-0.023397
-0.023397
-0.023399
-0.023399
-0.023398
-0.023398
-0.023399
-0.023398
-0.023398
-0.023398
-0.023398
-0.023398
-0.023398
-0.023398
-0.023398
-0.023398
-0.023398
-0.023398
-0.023398
-0.023398
-0.023398
-0.023398
-0.023398
-0.023398
-0.023398
-0.023398
-0.023398
-0.023398
-0.023398
-0.023398
-0.023398
-0.023398
-0.101852
-0.101913
-0.101940
-0.101906
-0.101892
-0.101909
-0.101913
-0.101902
-0.101902
-0.101909
-0.101908
-0.101902
-0.101903
-0.101906
-0.101906
-0.101904
-0.101904
-0.101905
-0.101905
-0.101905
-0.101905
-0.101905
-0.101905
-0.101905
-0.101905
-0.101905
-0.101905
-0.101905
-0.101905
-0.101905
-0.101905
-0.101905
-0.101905
-0.101905
-0.101905
-0.101905
-0.101906
-0.101906
-0.101906
-0.101906
-0.101906
-0.101906
-0.101906
-0.101906
-0.101906
-0.101906
-0.101906

SCALARS temperature float 1 
LOOKUP_TABLE default 
0.246461
0.248255
0.248044
0.250924
0.254546
0.254373
0.254938
0.257935
0.260516
0.261207
0.261601
0.262786
0.264372
0.265448
0.265808
0.266221
0.267215
0.268331
0.268891
0.269219
0.269686
0.270362
0.270969
0.271320
0.271563
0.271956
0.272419
0.272688
0.272904
0.273171
0.273400
0.273597
0.273798
0.273994
0.274159
0.274267
0.274363
0.274514
0.274669
0.274743
0.274792
0.274900
0.275021
0.275111
0.275211
0.275331
0.275440
0.125213
0.125923
0.126382
0.122953
0.116471
0.114236
0.114117
0.113665
0.113364
0.114032
0.114093
0.113139
0.112422
0.112472
0.112712
0.112427
0.111765
0.111520
0.111917
0.111975
0.111647
0.111441
0.111455
0.111498
0.111508
0.111340
0.111123
0.111245
0.111363
0.111226
0.111137
0.111135
0.111064
0.111039
0.111100
0.111113
0.111032
0.110948
0.110968
0.111023
0.111029
0.110953
0.110911
0.110943
0.110932
0.110872
0.110864
0.018899
0.018456
0.018721
0.013870
0.007619
0.004764
0.004406
0.004198
0.004459
0.004853
0.004699
0.003980
0.003287
0.003086
0.003027
0.002614
0.002068
0.001917
0.001921
0.001818
0.001614
0.001349
0.001198
0.001211
0.001139
0.000909
0.000782
0.000769
0.000719
0.000674
0.000604
0.000478
0.000424
0.000410
0.000391
0.000363
0.000304
0.000239
0.000217
0.000256
0.000236
0.000172
0.000133
0.000126
0.000075
0.000021
-0.000013
-0.096704
-0.096930
-0.096641
-0.100075
-0.104917
-0.106944
-0.107178
-0.107105
-0.106757
-0.106045
-0.105957
-0.106839
-0.107651
-0.107711
-0.107543
-0.107896
-0.108575
-0.108964
-0.108795
-0.108707
-0.109090
-0.109471
-0.109535
-0.109505
-0.109622
-0.109837
-0.110039
-0.110074
-0.110009
-0.110105
-0.110275
-0.110322
-0.110372
-0.110448
-0.110457
-0.110440
-0.110514
-0.110630
-0.110633
-0.110589
-0.110594
-0.110668
-0.110723
-0.110743
-0.110771
-0.110861
-0.110894
-0.263987
-0.264787
-0.263622
-0.264801
-0.267110
-0.268243
-0.268114
-0.267716
-0.267663
-0.267830
-0.267986
-0.268328
-0.268965
-0.269548
-0.269849
-0.270161
-0.270684
-0.271143
-0.271474
-0.271758
-0.272023
-0.272372
-0.272735
-0.272957
-0.273121
-0.273367
-0.273628
-0.273816
-0.273947
-0.274067
-0.274222
-0.274388
-0.274496
-0.274581
-0.274694
-0.274781
-0.274836
-0.274919
-0.275010
-0.275042
-0.275068
-0.275136
-0.275220
-0.275289
-0.275380
-0.275477
-0.275544


SCALARS Species_1 float 1 
LOOKUP_TABLE default 
0.000000
0.000000
0.000000
0.000000
0.000000
0.000000
0.000000
0.000000
0.000000
0.000000
0.000000
0.000000
0.000000
0.000000
0.000000
0.000000
0.000000
0.000000
0.000000
0.000000
0.000000
0.000000
0.000000
0.000000
0.000000
0.000000
0.000000
0.000000
0.000000
0.000000
0.000000
0.000000
0.000000
0.000000
0.000000
0.000000
0.000000
0.000000
0.000000
0.000000
0.000000
0.000000
0.000000
0.000000
0.000000
0.000000
0.000000
0.000000
0.000000
0.000000
0.000000
0.000000
0.000000
0.000000
0.000000
0.000000
0.000000
0.000000
0.000000
0.000000
0.000000
0.000000
0.000000
0.000000
0.000000
0.000000
0.000000
0.000000
0.000000
0.000000
0.000000
0.000000
0.000000
0.000000
0.000000
0.000000
0.000000
0.000000
0.000000
0.000000
0.000000
0.000000
0.000000
0.000000
0.000000
0.000000
0.000000
0.000000
0.000000
0.000000
0.000000
0.000000
0.000000
0.000000
0.000000
0.000000
0.000000
0.000000
0.000000
0.000000
0.000000
0.000000
0.000000
0.000000
0.000000
0.000000
0.000000
0.000000
0.000000
0.000000
0.000000
0.000000
0.000000
0.000000
0.000000
0.000000
0.000000
0.000000
0.000000
0.000000
0.000000
0.000000
0.000000
0.000000
0.000000
0.000000
0.000000
0.000000
0.000000
0.000000
0.000000
0.000000
0.000000
0.000000
0.000000
0.000000
0.000000
0.000000
0.000000
0.000000
0.000000
0.000000
0.000000
0.000000
0.000000
0.000000
0.000000
0.000000
0.000000
0.000000
0.000000
0.000000
0.000000
0.000000
0.000000
0.000000
0.000000
0.000000
0.000000
0.000000
0.000000
0.000000
0.000000
0.000000
0.000000
0.000000
0.000000
0.000000
0.000000
0.000000
0.000000
0.000000
0.000000
0.000000
0.000000
0.000000
0.000000
0.000000
0.000000
0.000000
0.000000
0.000000
0.000000
0.000000
0.000000
0.000000
0.000000
0.000000
0.000000
0.000000
0.000000
0.000000
0.000000
0.000000
0.000000
0.000000
0.000000
0.000000
0.000000
0.000000
0.000000
0.000000
0.000000
0.000000
0.000000
0.000000
0.000000
0.000000
0.000000
0.000000
0.000000
0.000000
0.000000
0.000000
0.000000
0.000000
0.000000
0.000000
0.000000
0.000000
0.000000
0.000000
0.000000
0.000000
0.000000
0.000000
0.000000
0.000000
0.000000
0.000000
0.000000
0.000000
0.000000
0.000000
0.000000


SCALARS Species_2 float 1 
LOOKUP_TABLE default 
0.000000
0.000000
0.000000
0.000000
0.000000
0.000000
0.000000
0.000000
0.000000
0.000000
0.000000
0.000000
0.000000
0.000000
0.000000
0.000000
0.000000
0.000000
0.000000
0.000000
0.000000
0.000000
0.000000
0.000000
0.000000
0.000000
0.000000
0.000000
0.000000
0.000000
0.000000
0.000000
0.000000
0.000000
0.000000
0.000000
0.000000
0.000000
0.000000
0.000000
0.000000
0.000000
0.000000
0.000000
0.000000
0.000000
0.000000
0.000000
0.000000
0.000000
0.000000
0.000000
0.000000
0.000000
0.000000
0.000000
0.000000
0.000000
0.000000
0.000000
0.000000
0.000000
0.000000
0.000000
0.000000
0.000000
0.000000
0.000000
0.000000
0.000000
0.000000
0.000000
0.000000
0.000000
0.000000
0.000000
0.000000
0.000000
0.000000
0.000000
0.000000
0.000000
0.000000
0.000000
0.000000
0.000000
0.000000
0.000000
0.000000
0.000000
0.000000
0.000000
0.000000
0.000000
0.000000
0.000000
0.000000
0.000000
0.000000
0.000000
0.000000
0.000000
0.000000
0.000000
0.000000
0.000000
0.000000
0.000000
0.000000
0.000000
0.000000
0.000000
0.000000
0.000000
0.000000
0.000000
0.000000
0.000000
0.000000
0.000000
0.000000
0.000000
0.000000
0.000000
0.000000
0.000000
0.000000
0.000000
0.000000
0.000000
0.000000
0.000000
0.000000
0.000000
0.000000
0.000000
0.000000
0.000000
0.000000
0.000000
0.000000
0.000000
0.000000
0.000000
0.000000
0.000000
0.000000
0.000000
0.000000
0.000000
0.000000
0.000000
0.000000
0.000000
0.000000
0.000000
0.000000
0.000000
0.000000
0.000000
0.000000
0.000000
0.000000
0.000000
0.000000
0.000000
0.000000
0.000000
0.000000
0.000000
0.000000
0.000000
0.000000
0.000000
0.000000
0.000000
0.000000
0.000000
0.000000
0.000000
0.000000
0.000000
0.000000
0.000000
0.000000
0.000000
0.000000
0.000000
0.000000
0.000000
0.000000
0.000000
0.000000
0.000000
0.000000
0.000000
0.000000
0.000000
0.000000
0.000000
0.000000
0.000000
0.000000
0.000000
0.000000
0.000000
0.000000
0.000000
0.000000
0.000000
0.000000
0.000000
0.000000
0.000000
0.000000
0.000000
0.000000
0.000000
0.000000
0.000000
0.000000
0.000000
0.000000
0.000000
0.000000
0.000000
0.000000
0.000000
0.000000
0.000000
0.000000
0.000000
0.000000
0.000000
0.000000


SCALARS Species_3 float 1 
LOOKUP_TABLE default 
0.000000
0.000000
0.000000
0.000000
0.000000
0.000000
0.000000
0.000000
0.000000
0.000000
0.000000
0.000000
0.000000
0.000000
0.000000
0.000000
0.000000
0.000000
0.000000
0.000000
0.000000
0.000000
0.000000
0.000000
0.000000
0.000000
0.000000
0.000000
0.000000
0.000000
0.000000
0.000000
0.000000
0.000000
0.000000
0.000000
0.000000
0.000000
0.000000
0.000000
0.000000
0.000000
0.000000
0.000000
0.000000
0.000000
0.000000
0.000000
0.000000
0.000000
0.000000
0.000000
0.000000
0.000000
0.000000
0.000000
0.000000
0.000000
0.000000
0.000000
0.000000
0.000000
0.000000
0.000000
0.000000
0.000000
0.000000
0.000000
0.000000
0.000000
0.000000
0.000000
0.000000
0.000000
0.000000
0.000000
0.000000
0.000000
0.000000
0.000000
0.000000
0.000000
0.000000
0.000000
0.000000
0.000000
0.000000
0.000000
0.000000
0.000000
0.000000
0.000000
0.000000
0.000000
0.000000
0.000000
0.000000
0.000000
0.000000
0.000000
0.000000
0.000000
0.000000
0.000000
0.000000
0.000000
0.000000
0.000000
0.000000
0.000000
0.000000
0.000000
0.000000
0.000000
0.000000
0.000000
0.000000
0.000000
0.000000
0.000000
0.000000
0.000000
0.000000
0.000000
0.000000
0.000000
0.000000
0.000000
0.000000
0.000000
0.000000
0.000000
0.000000
0.000000
0.000000
0.000000
0.000000
0.000000
0.000000
0.000000
0.000000
0.000000
0.000000
0.000000
0.000000
0.000000
0.000000
0.000000
0.000000
0.000000
0.000000
0.000000
0.000000
0.000000
0.000000
0.000000
0.000000
0.000000
0.000000
0.000000
0.000000
0.000000
0.000000
0.000000
0.000000
0.000000
0.000000
0.000000
0.000000
0.000000
0.000000
0.000000
0.000000
0.000000
0.000000
0.000000
0.000000
0.000000
0.000000
0.000000
0.000000
0.000000
0.000000
0.000000
0.000000
0.000000
0.000000
0.000000
0.000000
0.000000
0.000000
0.000000
0.000000
0.000000
0.000000
0.000000
0.000000
0.000000
0.000000
0.000000
0.000000
0.000000
0.000000
0.000000
0.000000
0.000000
0.000000
0.000000
0.000000
0.000000
0.000000
0.000000
0.000000
0.000000
0.000000
0.000000
0.000000
0.000000
0.000000
0.000000
0.000000
0.000000
0.000000
0.000000
0.000000
0.000000
0.000000
0.000000
0.000000
0.000000
0.000000
0.000000
0.000000
0.000000
0.000000


SCALARS Species_4 float 1 
LOOKUP_TABLE default 
0.000000
0.000000
0.000000
0.000000
0.000000
0.000000
0.000000
0.000000
0.000000
0.000000
0.000000
0.000000
0.000000
0.000000
0.000000
0.000000
0.000000
0.000000
0.000000
0.000000
0.000000
0.000000
0.000000
0.000000
0.000000
0.000000
0.000000
0.000000
0.000000
0.000000
0.000000
0.000000
0.000000
0.000000
0.000000
0.000000
0.000000
0.000000
0.000000
0.000000
0.000000
0.000000
0.000000
0.000000
0.000000
0.000000
0.000000
0.000000
0.000000
0.000000
0.000000
0.000000
0.000000
0.000000
0.000000
0.000000
0.000000
0.000000
0.000000
0.000000
0.000000
0.000000
0.000000
0.000000
0.000000
0.000000
0.000000
0.000000
0.000000
0.000000
0.000000
0.000000
0.000000
0.000000
0.000000
0.000000
0.000000
0.000000
0.000000
0.000000
0.000000
0.000000
0.000000
0.000000
0.000000
0.000000
0.000000
0.000000
0.000000
0.000000
0.000000
0.000000
0.000000
0.000000
0.000000
0.000000
0.000000
0.000000
0.000000
0.000000
0.000000
0.000000
0.000000
0.000000
0.000000
0.000000
0.000000
0.000000
0.000000
0.000000
0.000000
0.000000
0.000000
0.000000
0.000000
0.000000
0.000000
0.000000
0.000000
0.000000
0.000000
0.000000
0.000000
0.000000
0.000000
0.000000
0.000000
0.000000
0.000000
0.000000
0.000000
0.000000
0.000000
0.000000
0.000000
0.000000
0.000000
0.000000
0.000000
0.000000
0.000000
0.000000
0.000000
0.000000
0.000000
0.000000
0.000000
0.000000
0.000000
0.000000
0.000000
0.000000
0.000000
0.000000
0.000000
0.000000
0.000000
0.000000
0.000000
0.000000
0.000000
0.000000
0.000000
0.000000
0.000000
0.000000
0.000000
0.000000
0.000000
0.000000
0.000000
0.000000
0.000000
0.000000
0.000000
0.000000
0.000000
0.000000
0.000000
0.000000
0.000000
0.000000
0.000000
0.000000
0.000000
0.000000
0.000000
0.000000
0.000000
0.000000
0.000000
0.000000
0.000000
0.000000
0.000000
0.000000
0.000000
0.000000
0.000000
0.000000
0.000000
0.000000
0.000000
0.000000
0.000000
0.000000
0.000000
0.000000
0.000000
0.000000
0.000000
0.000000
0.000000
0.000000
0.000000
0.000000
0.000000
0.000000
0.000000
0.000000
0.000000
0.000000
0.000000
0.000000
0.000000
0.000000
0.000000
0.000000
0.000000
0.000000
0.000000
0.000000
0.000000
0.000000
0.000000
