# vtk DataFile Version 2.0
generated by CFD-lab course output (written by Tobias Neckel) 
ASCII

DATASET STRUCTURED_GRID
DIMENSIONS  101 21 1 
POINTS 2121 float

0.000000 0.000000 0
0.100000 0.000000 0
0.200000 0.000000 0
0.300000 0.000000 0
0.400000 0.000000 0
0.500000 0.000000 0
0.600000 0.000000 0
0.700000 0.000000 0
0.800000 0.000000 0
0.900000 0.000000 0
1.000000 0.000000 0
1.100000 0.000000 0
1.200000 0.000000 0
1.300000 0.000000 0
1.400000 0.000000 0
1.500000 0.000000 0
1.600000 0.000000 0
1.700000 0.000000 0
1.800000 0.000000 0
1.900000 0.000000 0
2.000000 0.000000 0
2.100000 0.000000 0
2.200000 0.000000 0
2.300000 0.000000 0
2.400000 0.000000 0
2.500000 0.000000 0
2.600000 0.000000 0
2.700000 0.000000 0
2.800000 0.000000 0
2.900000 0.000000 0
3.000000 0.000000 0
3.100000 0.000000 0
3.200000 0.000000 0
3.300000 0.000000 0
3.400000 0.000000 0
3.500000 0.000000 0
3.600000 0.000000 0
3.700000 0.000000 0
3.800000 0.000000 0
3.900000 0.000000 0
4.000000 0.000000 0
4.100000 0.000000 0
4.200000 0.000000 0
4.300000 0.000000 0
4.400000 0.000000 0
4.500000 0.000000 0
4.600000 0.000000 0
4.700000 0.000000 0
4.800000 0.000000 0
4.900000 0.000000 0
5.000000 0.000000 0
5.100000 0.000000 0
5.200000 0.000000 0
5.300000 0.000000 0
5.400000 0.000000 0
5.500000 0.000000 0
5.600000 0.000000 0
5.700000 0.000000 0
5.800000 0.000000 0
5.900000 0.000000 0
6.000000 0.000000 0
6.100000 0.000000 0
6.200000 0.000000 0
6.300000 0.000000 0
6.400000 0.000000 0
6.500000 0.000000 0
6.600000 0.000000 0
6.700000 0.000000 0
6.800000 0.000000 0
6.900000 0.000000 0
7.000000 0.000000 0
7.100000 0.000000 0
7.200000 0.000000 0
7.300000 0.000000 0
7.400000 0.000000 0
7.500000 0.000000 0
7.600000 0.000000 0
7.700000 0.000000 0
7.800000 0.000000 0
7.900000 0.000000 0
8.000000 0.000000 0
8.100000 0.000000 0
8.200000 0.000000 0
8.300000 0.000000 0
8.400000 0.000000 0
8.500000 0.000000 0
8.600000 0.000000 0
8.700000 0.000000 0
8.800000 0.000000 0
8.900000 0.000000 0
9.000000 0.000000 0
9.100000 0.000000 0
9.200000 0.000000 0
9.300000 0.000000 0
9.400000 0.000000 0
9.500000 0.000000 0
9.600000 0.000000 0
9.700000 0.000000 0
9.800000 0.000000 0
9.900000 0.000000 0
10.000000 0.000000 0
0.000000 0.100000 0
0.100000 0.100000 0
0.200000 0.100000 0
0.300000 0.100000 0
0.400000 0.100000 0
0.500000 0.100000 0
0.600000 0.100000 0
0.700000 0.100000 0
0.800000 0.100000 0
0.900000 0.100000 0
1.000000 0.100000 0
1.100000 0.100000 0
1.200000 0.100000 0
1.300000 0.100000 0
1.400000 0.100000 0
1.500000 0.100000 0
1.600000 0.100000 0
1.700000 0.100000 0
1.800000 0.100000 0
1.900000 0.100000 0
2.000000 0.100000 0
2.100000 0.100000 0
2.200000 0.100000 0
2.300000 0.100000 0
2.400000 0.100000 0
2.500000 0.100000 0
2.600000 0.100000 0
2.700000 0.100000 0
2.800000 0.100000 0
2.900000 0.100000 0
3.000000 0.100000 0
3.100000 0.100000 0
3.200000 0.100000 0
3.300000 0.100000 0
3.400000 0.100000 0
3.500000 0.100000 0
3.600000 0.100000 0
3.700000 0.100000 0
3.800000 0.100000 0
3.900000 0.100000 0
4.000000 0.100000 0
4.100000 0.100000 0
4.200000 0.100000 0
4.300000 0.100000 0
4.400000 0.100000 0
4.500000 0.100000 0
4.600000 0.100000 0
4.700000 0.100000 0
4.800000 0.100000 0
4.900000 0.100000 0
5.000000 0.100000 0
5.100000 0.100000 0
5.200000 0.100000 0
5.300000 0.100000 0
5.400000 0.100000 0
5.500000 0.100000 0
5.600000 0.100000 0
5.700000 0.100000 0
5.800000 0.100000 0
5.900000 0.100000 0
6.000000 0.100000 0
6.100000 0.100000 0
6.200000 0.100000 0
6.300000 0.100000 0
6.400000 0.100000 0
6.500000 0.100000 0
6.600000 0.100000 0
6.700000 0.100000 0
6.800000 0.100000 0
6.900000 0.100000 0
7.000000 0.100000 0
7.100000 0.100000 0
7.200000 0.100000 0
7.300000 0.100000 0
7.400000 0.100000 0
7.500000 0.100000 0
7.600000 0.100000 0
7.700000 0.100000 0
7.800000 0.100000 0
7.900000 0.100000 0
8.000000 0.100000 0
8.100000 0.100000 0
8.200000 0.100000 0
8.300000 0.100000 0
8.400000 0.100000 0
8.500000 0.100000 0
8.600000 0.100000 0
8.700000 0.100000 0
8.800000 0.100000 0
8.900000 0.100000 0
9.000000 0.100000 0
9.100000 0.100000 0
9.200000 0.100000 0
9.300000 0.100000 0
9.400000 0.100000 0
9.500000 0.100000 0
9.600000 0.100000 0
9.700000 0.100000 0
9.800000 0.100000 0
9.900000 0.100000 0
10.000000 0.100000 0
0.000000 0.200000 0
0.100000 0.200000 0
0.200000 0.200000 0
0.300000 0.200000 0
0.400000 0.200000 0
0.500000 0.200000 0
0.600000 0.200000 0
0.700000 0.200000 0
0.800000 0.200000 0
0.900000 0.200000 0
1.000000 0.200000 0
1.100000 0.200000 0
1.200000 0.200000 0
1.300000 0.200000 0
1.400000 0.200000 0
1.500000 0.200000 0
1.600000 0.200000 0
1.700000 0.200000 0
1.800000 0.200000 0
1.900000 0.200000 0
2.000000 0.200000 0
2.100000 0.200000 0
2.200000 0.200000 0
2.300000 0.200000 0
2.400000 0.200000 0
2.500000 0.200000 0
2.600000 0.200000 0
2.700000 0.200000 0
2.800000 0.200000 0
2.900000 0.200000 0
3.000000 0.200000 0
3.100000 0.200000 0
3.200000 0.200000 0
3.300000 0.200000 0
3.400000 0.200000 0
3.500000 0.200000 0
3.600000 0.200000 0
3.700000 0.200000 0
3.800000 0.200000 0
3.900000 0.200000 0
4.000000 0.200000 0
4.100000 0.200000 0
4.200000 0.200000 0
4.300000 0.200000 0
4.400000 0.200000 0
4.500000 0.200000 0
4.600000 0.200000 0
4.700000 0.200000 0
4.800000 0.200000 0
4.900000 0.200000 0
5.000000 0.200000 0
5.100000 0.200000 0
5.200000 0.200000 0
5.300000 0.200000 0
5.400000 0.200000 0
5.500000 0.200000 0
5.600000 0.200000 0
5.700000 0.200000 0
5.800000 0.200000 0
5.900000 0.200000 0
6.000000 0.200000 0
6.100000 0.200000 0
6.200000 0.200000 0
6.300000 0.200000 0
6.400000 0.200000 0
6.500000 0.200000 0
6.600000 0.200000 0
6.700000 0.200000 0
6.800000 0.200000 0
6.900000 0.200000 0
7.000000 0.200000 0
7.100000 0.200000 0
7.200000 0.200000 0
7.300000 0.200000 0
7.400000 0.200000 0
7.500000 0.200000 0
7.600000 0.200000 0
7.700000 0.200000 0
7.800000 0.200000 0
7.900000 0.200000 0
8.000000 0.200000 0
8.100000 0.200000 0
8.200000 0.200000 0
8.300000 0.200000 0
8.400000 0.200000 0
8.500000 0.200000 0
8.600000 0.200000 0
8.700000 0.200000 0
8.800000 0.200000 0
8.900000 0.200000 0
9.000000 0.200000 0
9.100000 0.200000 0
9.200000 0.200000 0
9.300000 0.200000 0
9.400000 0.200000 0
9.500000 0.200000 0
9.600000 0.200000 0
9.700000 0.200000 0
9.800000 0.200000 0
9.900000 0.200000 0
10.000000 0.200000 0
0.000000 0.300000 0
0.100000 0.300000 0
0.200000 0.300000 0
0.300000 0.300000 0
0.400000 0.300000 0
0.500000 0.300000 0
0.600000 0.300000 0
0.700000 0.300000 0
0.800000 0.300000 0
0.900000 0.300000 0
1.000000 0.300000 0
1.100000 0.300000 0
1.200000 0.300000 0
1.300000 0.300000 0
1.400000 0.300000 0
1.500000 0.300000 0
1.600000 0.300000 0
1.700000 0.300000 0
1.800000 0.300000 0
1.900000 0.300000 0
2.000000 0.300000 0
2.100000 0.300000 0
2.200000 0.300000 0
2.300000 0.300000 0
2.400000 0.300000 0
2.500000 0.300000 0
2.600000 0.300000 0
2.700000 0.300000 0
2.800000 0.300000 0
2.900000 0.300000 0
3.000000 0.300000 0
3.100000 0.300000 0
3.200000 0.300000 0
3.300000 0.300000 0
3.400000 0.300000 0
3.500000 0.300000 0
3.600000 0.300000 0
3.700000 0.300000 0
3.800000 0.300000 0
3.900000 0.300000 0
4.000000 0.300000 0
4.100000 0.300000 0
4.200000 0.300000 0
4.300000 0.300000 0
4.400000 0.300000 0
4.500000 0.300000 0
4.600000 0.300000 0
4.700000 0.300000 0
4.800000 0.300000 0
4.900000 0.300000 0
5.000000 0.300000 0
5.100000 0.300000 0
5.200000 0.300000 0
5.300000 0.300000 0
5.400000 0.300000 0
5.500000 0.300000 0
5.600000 0.300000 0
5.700000 0.300000 0
5.800000 0.300000 0
5.900000 0.300000 0
6.000000 0.300000 0
6.100000 0.300000 0
6.200000 0.300000 0
6.300000 0.300000 0
6.400000 0.300000 0
6.500000 0.300000 0
6.600000 0.300000 0
6.700000 0.300000 0
6.800000 0.300000 0
6.900000 0.300000 0
7.000000 0.300000 0
7.100000 0.300000 0
7.200000 0.300000 0
7.300000 0.300000 0
7.400000 0.300000 0
7.500000 0.300000 0
7.600000 0.300000 0
7.700000 0.300000 0
7.800000 0.300000 0
7.900000 0.300000 0
8.000000 0.300000 0
8.100000 0.300000 0
8.200000 0.300000 0
8.300000 0.300000 0
8.400000 0.300000 0
8.500000 0.300000 0
8.600000 0.300000 0
8.700000 0.300000 0
8.800000 0.300000 0
8.900000 0.300000 0
9.000000 0.300000 0
9.100000 0.300000 0
9.200000 0.300000 0
9.300000 0.300000 0
9.400000 0.300000 0
9.500000 0.300000 0
9.600000 0.300000 0
9.700000 0.300000 0
9.800000 0.300000 0
9.900000 0.300000 0
10.000000 0.300000 0
0.000000 0.400000 0
0.100000 0.400000 0
0.200000 0.400000 0
0.300000 0.400000 0
0.400000 0.400000 0
0.500000 0.400000 0
0.600000 0.400000 0
0.700000 0.400000 0
0.800000 0.400000 0
0.900000 0.400000 0
1.000000 0.400000 0
1.100000 0.400000 0
1.200000 0.400000 0
1.300000 0.400000 0
1.400000 0.400000 0
1.500000 0.400000 0
1.600000 0.400000 0
1.700000 0.400000 0
1.800000 0.400000 0
1.900000 0.400000 0
2.000000 0.400000 0
2.100000 0.400000 0
2.200000 0.400000 0
2.300000 0.400000 0
2.400000 0.400000 0
2.500000 0.400000 0
2.600000 0.400000 0
2.700000 0.400000 0
2.800000 0.400000 0
2.900000 0.400000 0
3.000000 0.400000 0
3.100000 0.400000 0
3.200000 0.400000 0
3.300000 0.400000 0
3.400000 0.400000 0
3.500000 0.400000 0
3.600000 0.400000 0
3.700000 0.400000 0
3.800000 0.400000 0
3.900000 0.400000 0
4.000000 0.400000 0
4.100000 0.400000 0
4.200000 0.400000 0
4.300000 0.400000 0
4.400000 0.400000 0
4.500000 0.400000 0
4.600000 0.400000 0
4.700000 0.400000 0
4.800000 0.400000 0
4.900000 0.400000 0
5.000000 0.400000 0
5.100000 0.400000 0
5.200000 0.400000 0
5.300000 0.400000 0
5.400000 0.400000 0
5.500000 0.400000 0
5.600000 0.400000 0
5.700000 0.400000 0
5.800000 0.400000 0
5.900000 0.400000 0
6.000000 0.400000 0
6.100000 0.400000 0
6.200000 0.400000 0
6.300000 0.400000 0
6.400000 0.400000 0
6.500000 0.400000 0
6.600000 0.400000 0
6.700000 0.400000 0
6.800000 0.400000 0
6.900000 0.400000 0
7.000000 0.400000 0
7.100000 0.400000 0
7.200000 0.400000 0
7.300000 0.400000 0
7.400000 0.400000 0
7.500000 0.400000 0
7.600000 0.400000 0
7.700000 0.400000 0
7.800000 0.400000 0
7.900000 0.400000 0
8.000000 0.400000 0
8.100000 0.400000 0
8.200000 0.400000 0
8.300000 0.400000 0
8.400000 0.400000 0
8.500000 0.400000 0
8.600000 0.400000 0
[...]
POINT_DATA 2121 

VECTORS velocity float
0.500000 0.000000 0
0.000045 0.000000 0
0.000153 0.000000 0
0.000325 0.000000 0
0.000557 0.000000 0
0.000839 0.000000 0
0.001148 0.000000 0
0.001432 0.000000 0
0.001603 0.000000 0
0.001596 0.000000 0
0.001394 0.000000 0
0.001014 0.000000 0
0.000507 0.000000 0
-0.000055 0.000000 0
-0.000618 0.000000 0
-0.001194 0.000000 0
-0.001862 0.000000 0
-0.002672 0.000000 0
-0.003529 0.000000 0
-0.004244 0.000000 0
-0.004662 0.000000 0
-0.004632 0.000000 0
-0.004030 0.000000 0
-0.002873 0.000000 0
-0.001343 0.000000 0
0.000279 0.000000 0
0.001710 0.000000 0
0.002745 0.000000 0
0.003237 0.000000 0
0.002986 0.000000 0
0.000460 0.000000 0
-0.007759 0.000000 0
-0.004983 0.000000 0
0.012261 0.000000 0
-0.020697 0.000000 0
-0.007795 0.000000 0
0.028392 0.000000 0
0.034119 0.000000 0
0.016109 0.000000 0
-0.001088 0.000000 0
-0.011619 0.000000 0
-0.011530 0.000000 0
-0.010185 0.000000 0
-0.007325 0.000000 0
-0.003752 0.000000 0
0.001160 0.000000 0
0.016150 0.000000 0
0.033061 0.000000 0
0.017888 0.000000 0
0.003887 0.000000 0
-0.002802 0.000000 0
-0.002604 0.000000 0
0.000910 0.000000 0
0.002991 0.000000 0
0.002145 0.000000 0
0.000668 0.000000 0
-0.000822 0.000000 0
-0.002495 0.000000 0
-0.003535 0.000000 0
-0.003502 0.000000 0
-0.002786 0.000000 0
-0.001873 0.000000 0
-0.001242 0.000000 0
-0.000739 0.000000 0
-0.000510 0.000000 0
-0.000637 0.000000 0
-0.001109 0.000000 0
-0.001795 0.000000 0
-0.002557 0.000000 0
-0.003399 0.000000 0
-0.004287 0.000000 0
-0.005140 0.000000 0
-0.005885 0.000000 0
-0.006360 0.000000 0
-0.006336 0.000000 0
-0.005936 0.000000 0
-0.005465 0.000000 0
-0.005250 0.000000 0
-0.005353 0.000000 0
-0.006246 0.000000 0
-0.007182 0.000000 0
-0.008065 0.000000 0
-0.008674 0.000000 0
-0.008766 0.000000 0
-0.008460 0.000000 0
-0.007631 0.000000 0
-0.005328 0.000000 0
-0.002084 0.000000 0
0.003509 0.000000 0
0.011649 0.000000 0
0.015295 0.000000 0
0.011737 0.000000 0
0.025347 0.000000 0
0.034828 0.000000 0
0.021056 0.000000 0
0.009832 0.000000 0
0.004171 0.000000 0
0.003897 0.000000 0
0.006754 0.000000 0
0.009520 0.000000 0
0.009937 0.000000 0
1.000000 -0.004517 0
1.009684 -0.013723 0
1.028951 -0.023026 0
1.057663 -0.031938 0
1.095392 -0.039777 0
1.140913 -0.045362 0
1.191389 -0.047083 0
1.242042 -0.043265 0
1.284888 -0.033969 0
1.314609 -0.021643 0
1.330039 -0.009185 0
1.333027 0.001455 0
1.326711 0.009701 0
1.313732 0.015995 0
1.295262 0.020705 0
1.272138 0.023047 0
1.247343 0.021372 0
1.226503 0.014717 0
1.215679 0.003974 0
1.218717 -0.008184 0
1.235105 -0.018636 0
1.261752 -0.024594 0
1.292528 -0.023703 0
1.318398 -0.015359 0
1.331271 -0.001454 0
1.326833 0.014631 0
1.305036 0.029500 0
1.269160 0.040548 0
1.224574 0.046052 0
1.174289 0.041819 0
1.119439 0.007847 0
1.095896 -0.055566 0
1.201797 -0.010102 0
1.365751 0.055973 0
1.274446 -0.115422 0
0.909132 -0.093558 0
0.735964 0.184443 0
0.625281 0.251628 0
0.541805 0.125795 0
0.541667 -0.037114 0
0.624878 -0.127137 0
0.788531 -0.134194 0
0.978874 -0.103506 0
1.105417 -0.066374 0
1.147278 -0.023971 0
1.173085 0.048534 0
1.099275 0.230754 0
0.860145 0.358739 0
0.648761 0.235803 0
0.519420 0.041180 0
0.468958 -0.053403 0
0.463320 -0.050005 0
0.439005 0.005154 0
0.387093 0.042755 0
0.351925 0.034488 0
0.336653 0.009520 0
0.327974 -0.013294 0
0.337794 -0.035301 0
0.372981 -0.049919 0
0.418581 -0.049724 0
0.459437 -0.037822 0
0.491025 -0.022368 0
0.513137 -0.008552 0
0.526210 0.002059 0
0.531559 0.008238 0
0.532073 0.008794 0
0.530898 0.004293 0
0.531987 -0.003306 0
0.538377 -0.012583 0
0.553813 -0.023007 0
0.580396 -0.033967 0
0.617202 -0.044128 0
0.662683 -0.052641 0
0.715299 -0.057243 0
0.772880 -0.056055 0
0.831480 -0.051085 0
0.886678 -0.046035 0
0.938177 -0.043797 0
0.989543 -0.047125 0
1.040602 -0.054556 0
1.096389 -0.062534 0
1.160771 -0.070111 0
1.233582 -0.074949 0
1.309360 -0.074865 0
1.380183 -0.069889 0
1.439512 -0.059001 0
1.483096 -0.038747 0
1.506650 -0.010272 0
1.502787 0.033500 0
1.461746 0.086825 0
1.378675 0.108275 0
1.244742 0.091445 0
1.038984 0.151575 0
0.864482 0.219519 0
0.782258 0.159452 0
0.771100 0.061896 0
0.779917 -0.000034 0
0.766738 -0.015631 0
0.723443 -0.001461 0
0.678263 0.014131 0
0.655394 0.019445 0
1.000000 -0.009669 0
1.010000 -0.028930 0
1.029834 -0.047966 0
1.059634 -0.066428 0
1.099701 -0.083237 0
1.149897 -0.095984 0
1.207966 -0.101115 0
1.270319 -0.093485 0
1.321406 -0.072553 0
1.353712 -0.045137 0
1.367517 -0.018403 0
1.367086 0.003343 0
1.358023 0.019310 0
1.344226 0.031464 0
1.325296 0.041608 0
1.298821 0.047931 0
1.267156 0.045647 0
1.238865 0.031676 0
1.223673 0.007797 0
1.228318 -0.019415 0
1.250265 -0.043026 0
1.286723 -0.057415 0
1.330999 -0.056638 0
1.369542 -0.038736 0
1.390905 -0.008428 0
1.389467 0.026241 0
1.366184 0.057678 0
1.327251 0.080467 0
1.279242 0.094876 0
1.225841 0.105139 0
1.165577 0.078398 0
1.088651 -0.082354 0
1.058730 -0.269851 0
1.081935 -0.072645 0
0.904011 0.456623 0
0.583223 0.538486 0
0.485189 0.283855 0
0.463945 0.194163 0
0.500633 0.083619 0
0.536641 -0.083069 0
0.527888 -0.246859 0
0.565219 -0.353990 0
0.717119 -0.316881 0
0.887446 -0.168399 0
0.995025 -0.067662 0
1.008967 0.048009 0
0.945979 0.312947 0
0.922083 0.450521 0
0.887348 0.340731 0
0.802180 0.179810 0
0.727456 0.056108 0
0.630190 0.029961 0
0.525859 0.076234 0
0.476553 0.087087 0
0.451812 0.050447 0
0.406554 0.023959 0
0.355979 -0.001133 0
0.334755 -0.045001 0
0.343666 -0.080780 0
0.362376 -0.086448 0
0.379696 -0.072438 0
0.398806 -0.053694 0
0.421214 -0.035178 0
0.442856 -0.018416 0
0.460154 -0.005857 0
0.472224 0.000666 0
0.481731 0.000091 0
0.493206 -0.007474 0
0.509299 -0.021823 0
0.535522 -0.042016 0
0.574849 -0.063387 0
0.624213 -0.082285 0
0.676330 -0.098096 0
0.725527 -0.110197 0
0.773483 -0.116182 0
0.825098 -0.113800 0
0.879266 -0.106701 0
0.934455 -0.102870 0
0.987949 -0.102430 0
1.035140 -0.106852 0
1.085939 -0.120176 0
1.147141 -0.137201 0
1.219685 -0.148598 0
1.295128 -0.146612 0
1.361232 -0.130164 0
1.409160 -0.102926 0
1.436574 -0.067152 0
1.445635 -0.019706 0
1.435279 0.044888 0
1.411538 0.124095 0
1.356192 0.216987 0
1.222143 0.339673 0
1.021831 0.380241 0
0.934997 0.256707 0
0.937779 0.093362 0
0.968263 0.002320 0
0.971293 0.004342 0
0.905434 0.056453 0
0.819757 0.088454 0
0.748992 0.068028 0
0.723418 0.045905 0
1.000000 -0.014507 0
1.009011 -0.043546 0
1.027812 -0.072656 0
1.056994 -0.101801 0
1.098283 -0.130036 0
1.153969 -0.153622 0
1.222889 -0.167500 0
1.311859 -0.156700 0
1.377862 -0.117358 0
1.411469 -0.067748 0
1.418251 -0.022553 0
1.407710 0.010954 0
1.391027 0.032566 0
1.375882 0.048727 0
1.358010 0.066114 0
1.324843 0.081191 0
1.276349 0.081331 0
1.229644 0.058205 0
1.203075 0.014525 0
1.211516 -0.034773 0
1.240460 -0.077039 0
1.289721 -0.105325 0
1.354989 -0.106520 0
1.412227 -0.075262 0
1.446430 -0.021377 0
1.449897 0.039354 0
1.421247 0.091718 0
1.368801 0.127492 0
1.303866 0.147464 0
1.238004 0.155486 0
1.184609 0.145039 0
1.125904 0.051282 0
0.891393 -0.003384 0
0.494439 0.210694 0
0.406295 0.383292 0
0.616692 0.325266 0
0.611051 0.303723 0
0.647529 0.236186 0
0.806660 0.053100 0
0.935353 -0.064367 0
0.977545 -0.155713 0
0.901926 -0.323423 0
0.789373 -0.425731 0
0.779010 -0.344277 0
0.831594 -0.145490 0
0.814306 0.097583 0
0.786324 0.317642 0
0.849454 0.417373 0
0.912233 0.355708 0
0.968518 0.201075 0
0.916849 0.118590 0
0.766787 0.151595 0
0.689942 0.158793 0
0.712536 0.116805 0
0.719560 0.104491 0
0.683078 0.105356 0
0.645072 0.058508 0
0.614752 -0.022985 0
0.566220 -0.077537 0
0.498604 -0.085751 0
0.447550 -0.074250 0
0.426378 -0.063884 0
0.422926 -0.052599 0
0.429578 -0.036879 0
0.441405 -0.021127 0
0.456080 -0.012781 0
0.475284 -0.016687 0
0.499118 -0.030873 0
0.530799 -0.054897 0
0.571140 -0.088556 0
0.621471 -0.122658 0
0.684870 -0.145609 0
0.757269 -0.153954 0
0.827525 -0.154396 0
0.885349 -0.155628 0
0.929247 -0.156869 0
0.967117 -0.155393 0
1.003648 -0.152482 0
1.038126 -0.147812 0
1.074541 -0.152549 0
1.117453 -0.174539 0
1.170608 -0.203861 0
1.238336 -0.222940 0
1.309740 -0.216416 0
1.369252 -0.183925 0
1.409258 -0.134348 0
1.425622 -0.075227 0
1.417827 -0.008983 0
1.391978 0.067591 0
1.355146 0.165907 0
1.299998 0.297663 0
1.226924 0.425799 0
1.187702 0.438714 0
1.145598 0.303564 0
1.087247 0.126179 0
1.039450 0.028375 0
1.000883 0.062789 0
0.922149 0.135899 0
0.845490 0.154974 0
0.792213 0.110462 0
0.769617 0.070140 0
1.000000 -0.018672 0
1.006600 -0.056732 0
1.023203 -0.095947 0
1.049589 -0.136896 0
1.089679 -0.180207 0
1.149339 -0.220585 0
1.230271 -0.259001 0
1.384419 -0.248453 0
1.471566 -0.172158 0
1.500537 -0.085521 0
1.491139 -0.014639 0
1.459276 0.030573 0
1.427015 0.051142 0
1.414520 0.064485 0
1.410182 0.092652 0
1.370546 0.129597 0
1.291363 0.140850 0
1.220829 0.104954 0
1.163763 0.025929 0
1.178570 -0.056797 0
1.199288 -0.121229 0
1.236984 -0.171942 0
1.315254 -0.179141 0
1.386764 -0.130174 0
1.438929 -0.046096 0
1.466145 0.051426 0
1.457670 0.138776 0
1.419440 0.197851 0
1.357612 0.225674 0
1.277851 0.224397 0
1.198998 0.190500 0
1.121829 0.210863 0
0.878611 0.361615 0
0.589110 0.412455 0
0.543841 0.334372 0
0.509157 0.333731 0
0.490144 0.253019 0
0.606670 -0.001443 0
0.781857 -0.204203 0
0.912402 -0.253951 0
1.018127 -0.213430 0
1.027725 -0.165816 0
0.899727 -0.193963 0
0.751186 -0.210617 0
0.662803 -0.102954 0
0.637699 0.093282 0
0.677631 0.277802 0
0.783207 0.324615 0
0.909740 0.221670 0
0.956969 0.175197 0
0.887612 0.257842 0
0.834866 0.256870 0
0.826975 0.130488 0
0.808790 0.057472 0
0.806401 0.079908 0
0.859593 0.098450 0
0.912165 0.067196 0
0.867867 0.033855 0
0.719070 0.035370 0
0.566316 0.032224 0
0.498936 -0.000209 0
0.504510 -0.029068 0
0.525764 -0.038376 0
0.539167 -0.036892 0
0.542507 -0.032357 0
0.541537 -0.033211 0
0.543251 -0.042945 0
0.546894 -0.062988 0
0.557530 -0.093844 0
0.578382 -0.132687 0
0.607117 -0.177116 0
0.643695 -0.218082 0
0.695018 -0.240750 0
0.763155 -0.238277 0
0.838128 -0.217905 0
0.910258 -0.195569 0
0.974435 -0.181102 0
1.019203 -0.173880 0
1.049816 -0.173325 0
1.088115 -0.186182 0
1.124599 -0.216246 0
1.151214 -0.258086 0
1.191778 -0.287734 0
1.246346 -0.277532 0
1.297243 -0.229687 0
1.340258 -0.159300 0
1.367187 -0.075725 0
1.369641 0.013933 0
1.348568 0.107564 0
1.314134 0.216070 0
1.274812 0.345203 0
1.250442 0.451962 0
1.247410 0.461561 0
1.219681 0.357156 0
1.156940 0.199504 0
1.088711 0.088678 0
1.013678 0.121636 0
0.906573 0.211839 0
0.837782 0.218384 0
0.809728 0.143895 0
0.792650 0.090436 0
1.000000 -0.021100 0
1.000172 -0.066741 0
1.015547 -0.115642 0
1.036178 -0.168274 0
1.070270 -0.229783 0
1.122614 -0.294211 0
1.214781 -0.402576 0
1.497132 -0.397991 0
1.577325 -0.233471 0
1.579524 -0.087316 0
1.558465 0.018712 0
1.488838 0.075083 0
1.422980 0.077327 0
1.412159 0.065565 0
1.459359 0.110092 0
1.436344 0.200013 0
1.293475 0.231052 0
1.046954 0.185808 0
0.898951 0.056787 0
1.004098 -0.070295 0
1.018296 -0.135451 0
0.925795 -0.221289 0
0.974111 -0.256297 0
1.061821 -0.198935 0
1.178079 -0.100756 0
1.261563 0.020615 0
1.304236 0.138425 0
1.324196 0.227552 0
1.325745 0.289055 0
1.292688 0.314102 0
1.226251 0.301063 0
1.108818 0.371670 0
0.970146 0.529336 0
0.896322 0.545466 0
0.800590 0.463247 0
0.731200 0.378966 0
0.687005 0.206212 0
0.585487 -0.055525 0
0.524595 -0.252629 0
0.434196 -0.300635 0
0.379210 -0.271034 0
0.450878 -0.205020 0
0.551159 -0.149190 0
0.560623 -0.107351 0
0.533389 -0.031999 0
0.538872 0.082757 0
0.618438 0.172136 0
0.753598 0.185267 0
0.837190 0.181949 0
0.821329 0.223205 0
0.848147 0.240696 0
0.955308 0.212235 0
0.985254 0.184872 0
0.890677 0.137382 0
0.826737 0.053690 0
0.850901 -0.000405 0
0.850710 0.050237 0
0.740719 0.170113 0
0.573306 0.224016 0
0.464316 0.134385 0
0.443381 -0.012442 0
0.501760 -0.090709 0
0.582850 -0.087253 0
0.660848 -0.053620 0
0.723622 -0.023496 0
0.727689 -0.013523 0
0.656486 -0.022042 0
0.574109 -0.045151 0
0.534498 -0.086385 0
0.541502 -0.138142 0
0.575264 -0.187970 0
0.606095 -0.233509 0
0.627290 -0.273413 0
0.651713 -0.297507 0
0.686442 -0.302731 0
0.745122 -0.293176 0
0.831105 -0.264339 0
0.916621 -0.227864 0
0.959997 -0.216726 0
1.012375 -0.227335 0
1.015583 -0.237640 0
0.944324 -0.271042 0
0.887390 -0.318075 0
0.914407 -0.321885 0
0.993849 -0.277841 0
1.090400 -0.204296 0
1.165813 -0.104614 0
1.203564 0.009632 0
1.213036 0.123094 0
1.215314 0.239657 0
1.215935 0.361350 0
1.227846 0.453196 0
1.246966 0.469469 0
1.246235 0.394029 0
1.207418 0.257143 0
1.114007 0.171632 0
0.936458 0.244922 0
0.824908 0.311789 0
0.812294 0.251812 0
0.829774 0.155589 0
0.821329 0.103623 0
1.000000 -0.018838 0
1.000363 -0.072273 0
1.006003 -0.131950 0
1.010847 -0.191617 0
1.036093 -0.266641 0
1.056394 -0.365092 0
1.175618 -0.633516 0
1.536563 -0.610994 0
1.474092 -0.254546 0
1.398739 -0.066656 0
1.384929 0.076053 0
1.335544 0.166063 0
1.185858 0.127825 0
1.159771 0.028111 0
1.311788 0.068471 0
1.391785 0.295484 0
1.287103 0.530243 0
1.077290 0.499481 0
0.844655 0.068787 0
0.517857 -0.176140 0
0.316700 -0.042923 0
0.165875 -0.127754 0
0.232074 -0.315165 0
0.333141 -0.334141 0
0.551797 -0.245836 0
0.774091 -0.074730 0
0.953380 0.076145 0
1.073561 0.176343 0
1.134766 0.257184 0
1.157991 0.323893 0
1.151369 0.374371 0
1.090654 0.466970 0
1.057741 0.574113 0
1.066735 0.582013 0
1.037381 0.499495 0
1.025556 0.447318 0
0.979720 0.398735 0
0.880943 0.160968 0
0.644412 -0.052910 0
0.364601 -0.108564 0
0.207274 -0.230110 0
0.186184 -0.337762 0
0.291244 -0.303705 0
0.359679 -0.192845 0
0.401793 -0.081201 0
0.460414 0.008236 0
0.551301 0.063078 0
0.644162 0.105866 0
0.711471 0.153942 0
0.793324 0.164243 0
0.908322 0.123865 0
0.974150 0.119766 0
0.968695 0.195122 0
0.933054 0.215992 0
0.891661 0.119687 0
0.814528 0.074480 0
0.706978 0.177380 0
0.633993 0.311261 0
0.647967 0.311776 0
0.704251 0.162152 0
0.733905 -0.037651 0
0.715986 -0.168535 0
0.699197 -0.197462 0
0.748983 -0.177662 0
0.787028 -0.099196 0
0.735074 0.033927 0
0.613036 0.110637 0
0.524994 0.059000 0
0.514798 -0.061236 0
0.570428 -0.173452 0
0.666806 -0.241708 0
0.758856 -0.270108 0
0.822677 -0.286368 0
0.851970 -0.297429 0
0.846830 -0.311313 0
0.812221 -0.340232 0
0.793404 -0.352602 0
0.857442 -0.302773 0
0.940892 -0.269081 0
0.953616 -0.241770 0
0.771911 -0.148197 0
0.584032 -0.129895 0
0.488944 -0.257820 0
0.497279 -0.383994 0
0.600530 -0.405683 0
0.742368 -0.331268 0
0.869530 -0.188893 0
0.961546 -0.033294 0
1.029536 0.095810 0
1.073834 0.213167 0
1.098844 0.332666 0
1.127469 0.420927 0
1.169077 0.443167 0
1.195574 0.396700 0
1.167316 0.331727 0
1.039870 0.359633 0
0.890466 0.410730 0
0.866183 0.335998 0
0.899228 0.213514 0
0.918930 0.134855 0
0.912291 0.107816 0
1.000000 -0.021459 0
1.001891 -0.072739 0
1.004252 -0.126125 0
0.978016 -0.198363 0
0.995648 -0.275329 0
0.956006 -0.433734 0
1.064836 -0.882742 0
0.754713 -0.600819 0
-0.000448 0.000000 0
0.001164 0.000000 0
0.592821 0.080061 0
0.694477 0.274159 0
0.348101 0.253104 0
0.729660 -0.060362 0
0.630708 -0.121918 0
0.940254 0.224701 0
0.909570 0.545551 0
0.803090 0.628258 0
0.459237 0.616222 0
-0.029647 0.457663 0
-0.315218 0.216534 0
-0.313828 -0.136660 0
-0.319266 -0.423561 0
-0.231028 -0.518657 0
-0.049330 -0.541704 0
0.233700 -0.380967 0
0.536148 -0.161044 0
0.761900 0.046167 0
0.905995 0.204627 0
0.998144 0.297500 0
1.040209 0.368401 0
1.042246 0.465300 0
1.079327 0.553257 0
1.137345 0.565828 0
1.175457 0.504428 0
1.184484 0.436629 0
1.205774 0.350826 0
1.212229 0.279785 0
1.054641 0.263715 0
0.960995 0.136506 0
0.963736 -0.092615 0
0.835243 -0.288988 0
0.534625 -0.322682 0
0.370303 -0.217897 0
0.336619 -0.132732 0
0.374175 -0.066749 0
0.443356 -0.011609 0
0.522199 0.025099 0
0.615676 0.032790 0
0.721852 0.026357 0
0.790634 0.059872 0
0.794748 0.151865 0
0.790752 0.225972 0
0.837601 0.214419 0
0.864293 0.172219 0
0.829136 0.184280 0
0.802906 0.230775 0
0.849874 0.229127 0
0.964004 0.153761 0
1.059995 0.048450 0
1.088786 -0.024175 0
1.047372 -0.055999 0
1.007889 -0.120248 0
0.993306 -0.141449 0
0.922693 -0.009585 0
0.729583 0.160472 0
0.615864 0.188040 0
0.601767 0.053089 0
0.651655 -0.131817 0
0.735432 -0.290149 0
0.832880 -0.376397 0
0.922486 -0.389379 0
0.996839 -0.366526 0
1.076728 -0.321660 0
1.159840 -0.262983 0
1.197566 -0.239751 0
1.125273 -0.309560 0
1.019871 -0.375353 0
1.004763 -0.312902 0
0.993742 -0.058355 0
0.930461 0.131943 0
0.837302 0.011924 0
0.655396 -0.231325 0
0.510649 -0.433474 0
0.489790 -0.522932 0
0.568646 -0.473298 0
0.693371 -0.323795 0
0.811854 -0.150377 0
0.896190 0.010802 0
0.941894 0.170345 0
0.974823 0.307711 0
1.015749 0.382959 0
1.061295 0.401360 0
1.089967 0.395785 0
1.070516 0.412843 0
1.005352 0.448478 0
1.002001 0.418605 0
1.039324 0.303022 0
1.054764 0.199061 0
1.030270 0.142522 0
1.014590 0.118784 0
1.000000 -0.020726 0
1.001721 -0.076522 0
0.976314 -0.108076 0
0.973031 -0.183012 0
0.924901 -0.244630 0
0.892226 -0.434279 0
0.739585 -0.527864 0
0.000000 -0.002711 0
-0.661774 0.204771 0
-0.594648 0.000000 0
0.000000 0.000000 0
0.104522 0.435246 0
0.277654 0.092646 0
0.473150 -0.254493 0
0.336935 -0.142120 0
0.195399 0.016625 0
0.043797 0.667409 0
-0.114137 0.949817 0
-0.343186 0.901527 0
-0.240989 0.598316 0
-0.294473 0.241260 0
-0.133312 -0.123703 0
-0.211588 -0.397963 0
-0.198165 -0.604075 0
-0.184833 -0.710562 0
-0.056870 -0.660206 0
0.185075 -0.452054 0
0.459979 -0.193502 0
0.689409 0.020942 0
0.856127 0.189680 0
0.944037 0.330271 0
0.993731 0.427853 0
1.062207 0.479015 0
1.147457 0.485886 0
1.210037 0.452357 0
1.228500 0.417003 0
1.216256 0.370991 0
1.137528 0.312103 0
1.070737 0.198327 0
1.167761 -0.017657 0
1.156371 -0.104356 0
0.918573 0.091352 0
0.565606 0.161237 0
0.367231 0.005164 0
0.295428 -0.085070 0
0.293053 -0.098499 0
0.333332 -0.084943 0
0.400668 -0.066452 0
0.477710 -0.045709 0
0.536071 -0.010712 0
0.570647 0.050973 0
0.619462 0.119650 0
0.708295 0.152272 0
0.812320 0.142454 0
0.887879 0.128155 0
0.944461 0.135869 0
1.013876 0.156645 0
1.099893 0.150166 0
1.170427 0.101657 0
1.205533 0.037372 0
1.205694 -0.025025 0
1.202927 -0.087636 0
1.195363 -0.143394 0
1.117485 -0.092463 0
1.007834 0.164529 0
0.924736 0.340757 0
0.908255 0.238455 0
0.927256 0.023212 0
0.952556 -0.194900 0
0.963246 -0.354676 0
0.942475 -0.428761 0
0.904994 -0.434066 0
0.867217 -0.440609 0
0.915882 -0.460429 0
1.083600 -0.432151 0
1.293716 -0.305664 0
1.425230 -0.174908 0
1.379335 -0.182263 0
1.234468 -0.242952 0
1.151487 -0.167470 0
1.155880 0.008242 0
1.079254 0.145169 0
0.998346 0.068832 0
0.892877 -0.218390 0
0.806069 -0.463681 0
0.740364 -0.534851 0
0.737672 -0.432104 0
0.801786 -0.236116 0
0.861534 -0.034233 0
0.886091 0.134530 0
0.916377 0.258808 0
0.960242 0.334451 0
0.997449 0.368946 0
1.018776 0.387475 0
1.021948 0.416338 0
1.036775 0.428145 0
1.075950 0.376754 0
1.104339 0.283232 0
1.091917 0.222564 0
1.064308 0.175025 0
1.050796 0.142998 0
1.000000 -0.023179 0
0.992807 -0.049052 0
0.964049 -0.097435 0
0.960167 -0.146951 0
0.872270 -0.194524 0
0.844385 -0.248418 0
0.506650 -0.079356 0
0.334433 0.049926 0
0.000000 0.000000 0
0.000000 0.000000 0
0.000000 0.000000 0
0.000000 0.000000 0
0.414279 -0.136488 0
0.071681 -0.119639 0
0.092311 0.155835 0
-0.324604 0.517842 0
-0.459792 0.855089 0
-0.551413 1.015242 0
-0.493163 0.743076 0
-0.192888 0.408952 0
0.015667 0.108858 0
0.117775 -0.219543 0
0.171272 -0.358705 0
0.169048 -0.545410 0
0.126824 -0.682997 0
0.081647 -0.750873 0
0.128318 -0.677891 0
0.305443 -0.458165 0
0.518295 -0.191519 0
0.718160 0.042873 0
0.861350 0.230799 0
0.960798 0.347132 0
1.038138 0.399532 0
1.114227 0.418000 0
1.161490 0.423388 0
1.169905 0.430412 0
1.147307 0.441800 0
1.087075 0.425305 0
1.039893 0.233485 0
0.913937 0.050874 0
0.630173 0.156575 0
0.382140 0.301780 0
0.360688 0.228663 0
0.360640 0.052284 0
0.338711 -0.058551 0
0.313707 -0.104650 0
0.313260 -0.119221 0
0.341724 -0.119277 0
0.390213 -0.102611 0
0.448516 -0.066577 0
0.522236 -0.023516 0
0.622897 0.014219 0
0.744468 0.033117 0
0.860986 0.034837 0
0.957966 0.040080 0
1.038307 0.058286 0
1.117098 0.075344 0
1.199940 0.072578 0
1.266251 0.048123 0
1.305974 0.013186 0
1.318894 -0.021567 0
1.305186 -0.045667 0