# vtk DataFile Version 2.0
generated by CFD-lab course output (written by Tobias Neckel) 
ASCII

DATASET STRUCTURED_GRID
DIMENSIONS  101 21 1 
POINTS 2121 float

0.000000 0.000000 0
0.100000 0.000000 0
0.200000 0.000000 0
0.300000 0.000000 0
0.400000 0.000000 0
0.500000 0.000000 0
0.600000 0.000000 0
0.700000 0.000000 0
0.800000 0.000000 0
0.900000 0.000000 0
1.000000 0.000000 0
1.100000 0.000000 0
1.200000 0.000000 0
1.300000 0.000000 0
1.400000 0.000000 0
1.500000 0.000000 0
1.600000 0.000000 0
1.700000 0.000000 0
1.800000 0.000000 0
1.900000 0.000000 0
2.000000 0.000000 0
2.100000 0.000000 0
2.200000 0.000000 0
2.300000 0.000000 0
2.400000 0.000000 0
2.500000 0.000000 0
2.600000 0.000000 0
2.700000 0.000000 0
2.800000 0.000000 0
2.900000 0.000000 0
3.000000 0.000000 0
3.100000 0.000000 0
3.200000 0.000000 0
3.300000 0.000000 0
3.400000 0.000000 0
3.500000 0.000000 0
3.600000 0.000000 0
3.700000 0.000000 0
3.800000 0.000000 0
3.900000 0.000000 0
4.000000 0.000000 0
4.100000 0.000000 0
4.200000 0.000000 0
4.300000 0.000000 0
4.400000 0.000000 0
4.500000 0.000000 0
4.600000 0.000000 0
4.700000 0.000000 0
4.800000 0.000000 0
4.900000 0.000000 0
5.000000 0.000000 0
5.100000 0.000000 0
5.200000 0.000000 0
5.300000 0.000000 0
5.400000 0.000000 0
5.500000 0.000000 0
5.600000 0.000000 0
5.700000 0.000000 0
5.800000 0.000000 0
5.900000 0.000000 0
6.000000 0.000000 0
6.100000 0.000000 0
6.200000 0.000000 0
6.300000 0.000000 0
6.400000 0.000000 0
6.500000 0.000000 0
6.600000 0.000000 0
6.700000 0.000000 0
6.800000 0.000000 0
6.900000 0.000000 0
7.000000 0.000000 0
7.100000 0.000000 0
7.200000 0.000000 0
7.300000 0.000000 0
7.400000 0.000000 0
7.500000 0.000000 0
7.600000 0.000000 0
7.700000 0.000000 0
7.800000 0.000000 0
7.900000 0.000000 0
8.000000 0.000000 0
8.100000 0.000000 0
8.200000 0.000000 0
8.300000 0.000000 0
8.400000 0.000000 0
8.500000 0.000000 0
8.600000 0.000000 0
8.700000 0.000000 0
8.800000 0.000000 0
8.900000 0.000000 0
9.000000 0.000000 0
9.100000 0.000000 0
9.200000 0.000000 0
9.300000 0.000000 0
9.400000 0.000000 0
9.500000 0.000000 0
9.600000 0.000000 0
9.700000 0.000000 0
9.800000 0.000000 0
9.900000 0.000000 0
10.000000 0.000000 0
0.000000 0.100000 0
0.100000 0.100000 0
0.200000 0.100000 0
0.300000 0.100000 0
0.400000 0.100000 0
0.500000 0.100000 0
0.600000 0.100000 0
0.700000 0.100000 0
0.800000 0.100000 0
0.900000 0.100000 0
1.000000 0.100000 0
1.100000 0.100000 0
1.200000 0.100000 0
1.300000 0.100000 0
1.400000 0.100000 0
1.500000 0.100000 0
1.600000 0.100000 0
1.700000 0.100000 0
1.800000 0.100000 0
1.900000 0.100000 0
2.000000 0.100000 0
2.100000 0.100000 0
2.200000 0.100000 0
2.300000 0.100000 0
2.400000 0.100000 0
2.500000 0.100000 0
2.600000 0.100000 0
2.700000 0.100000 0
2.800000 0.100000 0
2.900000 0.100000 0
3.000000 0.100000 0
3.100000 0.100000 0
3.200000 0.100000 0
3.300000 0.100000 0
3.400000 0.100000 0
3.500000 0.100000 0
3.600000 0.100000 0
3.700000 0.100000 0
3.800000 0.100000 0
3.900000 0.100000 0
4.000000 0.100000 0
4.100000 0.100000 0
4.200000 0.100000 0
4.300000 0.100000 0
4.400000 0.100000 0
4.500000 0.100000 0
4.600000 0.100000 0
4.700000 0.100000 0
4.800000 0.100000 0
4.900000 0.100000 0
5.000000 0.100000 0
5.100000 0.100000 0
5.200000 0.100000 0
5.300000 0.100000 0
5.400000 0.100000 0
5.500000 0.100000 0
5.600000 0.100000 0
5.700000 0.100000 0
5.800000 0.100000 0
5.900000 0.100000 0
6.000000 0.100000 0
6.100000 0.100000 0
6.200000 0.100000 0
6.300000 0.100000 0
6.400000 0.100000 0
6.500000 0.100000 0
6.600000 0.100000 0
6.700000 0.100000 0
6.800000 0.100000 0
6.900000 0.100000 0
7.000000 0.100000 0
7.100000 0.100000 0
7.200000 0.100000 0
7.300000 0.100000 0
7.400000 0.100000 0
7.500000 0.100000 0
7.600000 0.100000 0
7.700000 0.100000 0
7.800000 0.100000 0
7.900000 0.100000 0
8.000000 0.100000 0
8.100000 0.100000 0
8.200000 0.100000 0
8.300000 0.100000 0
8.400000 0.100000 0
8.500000 0.100000 0
8.600000 0.100000 0
8.700000 0.100000 0
8.800000 0.100000 0
8.900000 0.100000 0
9.000000 0.100000 0
9.100000 0.100000 0
9.200000 0.100000 0
9.300000 0.100000 0
9.400000 0.100000 0
9.500000 0.100000 0
9.600000 0.100000 0
9.700000 0.100000 0
9.800000 0.100000 0
9.900000 0.100000 0
10.000000 0.100000 0
0.000000 0.200000 0
0.100000 0.200000 0
0.200000 0.200000 0
0.300000 0.200000 0
0.400000 0.200000 0
0.500000 0.200000 0
0.600000 0.200000 0
0.700000 0.200000 0
0.800000 0.200000 0
0.900000 0.200000 0
1.000000 0.200000 0
1.100000 0.200000 0
1.200000 0.200000 0
1.300000 0.200000 0
1.400000 0.200000 0
1.500000 0.200000 0
1.600000 0.200000 0
1.700000 0.200000 0
1.800000 0.200000 0
1.900000 0.200000 0
2.000000 0.200000 0
2.100000 0.200000 0
2.200000 0.200000 0
2.300000 0.200000 0
2.400000 0.200000 0
2.500000 0.200000 0
2.600000 0.200000 0
2.700000 0.200000 0
2.800000 0.200000 0
2.900000 0.200000 0
3.000000 0.200000 0
3.100000 0.200000 0
3.200000 0.200000 0
3.300000 0.200000 0
3.400000 0.200000 0
3.500000 0.200000 0
3.600000 0.200000 0
3.700000 0.200000 0
3.800000 0.200000 0
3.900000 0.200000 0
4.000000 0.200000 0
4.100000 0.200000 0
4.200000 0.200000 0
4.300000 0.200000 0
4.400000 0.200000 0
4.500000 0.200000 0
4.600000 0.200000 0
4.700000 0.200000 0
4.800000 0.200000 0
4.900000 0.200000 0
5.000000 0.200000 0
5.100000 0.200000 0
5.200000 0.200000 0
5.300000 0.200000 0
5.400000 0.200000 0
5.500000 0.200000 0
5.600000 0.200000 0
5.700000 0.200000 0
5.800000 0.200000 0
5.900000 0.200000 0
6.000000 0.200000 0
6.100000 0.200000 0
6.200000 0.200000 0
6.300000 0.200000 0
6.400000 0.200000 0
6.500000 0.200000 0
6.600000 0.200000 0
6.700000 0.200000 0
6.800000 0.200000 0
6.900000 0.200000 0
7.000000 0.200000 0
7.100000 0.200000 0
7.200000 0.200000 0
7.300000 0.200000 0
7.400000 0.200000 0
7.500000 0.200000 0
7.600000 0.200000 0
7.700000 0.200000 0
7.800000 0.200000 0
7.900000 0.200000 0
8.000000 0.200000 0
8.100000 0.200000 0
8.200000 0.200000 0
8.300000 0.200000 0
8.400000 0.200000 0
8.500000 0.200000 0
8.600000 0.200000 0
8.700000 0.200000 0
8.800000 0.200000 0
8.900000 0.200000 0
9.000000 0.200000 0
9.100000 0.200000 0
9.200000 0.200000 0
9.300000 0.200000 0
9.400000 0.200000 0
9.500000 0.200000 0
9.600000 0.200000 0
9.700000 0.200000 0
9.800000 0.200000 0
9.900000 0.200000 0
10.000000 0.200000 0
0.000000 0.300000 0
0.100000 0.300000 0
0.200000 0.300000 0
0.300000 0.300000 0
0.400000 0.300000 0
0.500000 0.300000 0
0.600000 0.300000 0
0.700000 0.300000 0
0.800000 0.300000 0
0.900000 0.300000 0
1.000000 0.300000 0
1.100000 0.300000 0
1.200000 0.300000 0
1.300000 0.300000 0
1.400000 0.300000 0
1.500000 0.300000 0
1.600000 0.300000 0
1.700000 0.300000 0
1.800000 0.300000 0
1.900000 0.300000 0
2.000000 0.300000 0
2.100000 0.300000 0
2.200000 0.300000 0
2.300000 0.300000 0
2.400000 0.300000 0
2.500000 0.300000 0
2.600000 0.300000 0
2.700000 0.300000 0
2.800000 0.300000 0
2.900000 0.300000 0
3.000000 0.300000 0
3.100000 0.300000 0
3.200000 0.300000 0
3.300000 0.300000 0
3.400000 0.300000 0
3.500000 0.300000 0
3.600000 0.300000 0
3.700000 0.300000 0
3.800000 0.300000 0
3.900000 0.300000 0
4.000000 0.300000 0
4.100000 0.300000 0
4.200000 0.300000 0
4.300000 0.300000 0
4.400000 0.300000 0
4.500000 0.300000 0
4.600000 0.300000 0
4.700000 0.300000 0
4.800000 0.300000 0
4.900000 0.300000 0
5.000000 0.300000 0
5.100000 0.300000 0
5.200000 0.300000 0
5.300000 0.300000 0
5.400000 0.300000 0
5.500000 0.300000 0
5.600000 0.300000 0
5.700000 0.300000 0
5.800000 0.300000 0
5.900000 0.300000 0
6.000000 0.300000 0
6.100000 0.300000 0
6.200000 0.300000 0
6.300000 0.300000 0
6.400000 0.300000 0
6.500000 0.300000 0
6.600000 0.300000 0
6.700000 0.300000 0
6.800000 0.300000 0
6.900000 0.300000 0
7.000000 0.300000 0
7.100000 0.300000 0
7.200000 0.300000 0
7.300000 0.300000 0
7.400000 0.300000 0
7.500000 0.300000 0
7.600000 0.300000 0
7.700000 0.300000 0
7.800000 0.300000 0
7.900000 0.300000 0
8.000000 0.300000 0
8.100000 0.300000 0
8.200000 0.300000 0
8.300000 0.300000 0
8.400000 0.300000 0
8.500000 0.300000 0
8.600000 0.300000 0
8.700000 0.300000 0
8.800000 0.300000 0
8.900000 0.300000 0
9.000000 0.300000 0
9.100000 0.300000 0
9.200000 0.300000 0
9.300000 0.300000 0
9.400000 0.300000 0
9.500000 0.300000 0
9.600000 0.300000 0
9.700000 0.300000 0
9.800000 0.300000 0
9.900000 0.300000 0
10.000000 0.300000 0
0.000000 0.400000 0
0.100000 0.400000 0
0.200000 0.400000 0
0.300000 0.400000 0
0.400000 0.400000 0
0.500000 0.400000 0
0.600000 0.400000 0
0.700000 0.400000 0
0.800000 0.400000 0
0.900000 0.400000 0
1.000000 0.400000 0
1.100000 0.400000 0
1.200000 0.400000 0
1.300000 0.400000 0
1.400000 0.400000 0
1.500000 0.400000 0
1.600000 0.400000 0
1.700000 0.400000 0
1.800000 0.400000 0
1.900000 0.400000 0
2.000000 0.400000 0
2.100000 0.400000 0
2.200000 0.400000 0
2.300000 0.400000 0
2.400000 0.400000 0
2.500000 0.400000 0
2.600000 0.400000 0
2.700000 0.400000 0
2.800000 0.400000 0
2.900000 0.400000 0
3.000000 0.400000 0
3.100000 0.400000 0
3.200000 0.400000 0
3.300000 0.400000 0
3.400000 0.400000 0
3.500000 0.400000 0
3.600000 0.400000 0
3.700000 0.400000 0
3.800000 0.400000 0
3.900000 0.400000 0
4.000000 0.400000 0
4.100000 0.400000 0
4.200000 0.400000 0
4.300000 0.400000 0
4.400000 0.400000 0
4.500000 0.400000 0
4.600000 0.400000 0
4.700000 0.400000 0
4.800000 0.400000 0
4.900000 0.400000 0
5.000000 0.400000 0
5.100000 0.400000 0
5.200000 0.400000 0
5.300000 0.400000 0
5.400000 0.400000 0
5.500000 0.400000 0
5.600000 0.400000 0
5.700000 0.400000 0
5.800000 0.400000 0
5.900000 0.400000 0
6.000000 0.400000 0
6.100000 0.400000 0
6.200000 0.400000 0
6.300000 0.400000 0
6.400000 0.400000 0
6.500000 0.400000 0
6.600000 0.400000 0
6.700000 0.400000 0
6.800000 0.400000 0
6.900000 0.400000 0
7.000000 0.400000 0
7.100000 0.400000 0
7.200000 0.400000 0
7.300000 0.400000 0
7.400000 0.400000 0
7.500000 0.400000 0
7.600000 0.400000 0
7.700000 0.400000 0
7.800000 0.400000 0
7.900000 0.400000 0
8.000000 0.400000 0
8.100000 0.400000 0
8.200000 0.400000 0
8.300000 0.400000 0
8.400000 0.400000 0
8.500000 0.400000 0
8.600000 0.400000 0
[...]
POINT_DATA 2121 

VECTORS velocity float
0.500000 0.000000 0
0.000011 0.000000 0
-0.000005 0.000000 0
-0.000045 0.000000 0
-0.000121 0.000000 0
-0.000239 0.000000 0
-0.000398 0.000000 0
-0.000595 0.000000 0
-0.000804 0.000000 0
-0.000974 0.000000 0
-0.001065 0.000000 0
-0.001055 0.000000 0
-0.000906 0.000000 0
-0.000561 0.000000 0
0.000007 0.000000 0
0.000764 0.000000 0
0.001614 0.000000 0
0.002460 0.000000 0
0.003267 0.000000 0
0.003983 0.000000 0
0.004396 0.000000 0
0.006107 0.000000 0
0.008669 0.000000 0
0.001660 0.000000 0
0.008591 0.000000 0
0.018363 0.000000 0
0.010143 0.000000 0
0.006640 0.000000 0
0.005287 0.000000 0
-0.008007 0.000000 0
-0.024369 0.000000 0
-0.034385 0.000000 0
-0.031809 0.000000 0
-0.030416 0.000000 0
-0.032833 0.000000 0
-0.031436 0.000000 0
-0.028523 0.000000 0
-0.021559 0.000000 0
-0.008732 0.000000 0
0.003974 0.000000 0
0.020417 0.000000 0
0.027490 0.000000 0
0.027843 0.000000 0
0.024378 0.000000 0
0.018823 0.000000 0
0.013625 0.000000 0
0.009319 0.000000 0
0.005871 0.000000 0
0.003283 0.000000 0
0.001651 0.000000 0
0.000834 0.000000 0
0.000145 0.000000 0
0.001143 0.000000 0
0.012456 0.000000 0
0.012782 0.000000 0
0.005418 0.000000 0
0.002774 0.000000 0
-0.004180 0.000000 0
-0.003426 0.000000 0
-0.004606 0.000000 0
-0.004867 0.000000 0
0.000864 0.000000 0
0.007287 0.000000 0
0.009623 0.000000 0
0.007656 0.000000 0
0.003870 0.000000 0
0.000155 0.000000 0
-0.001890 0.000000 0
-0.001977 0.000000 0
-0.000575 0.000000 0
0.001964 0.000000 0
0.004725 0.000000 0
0.006093 0.000000 0
0.005431 0.000000 0
0.003599 0.000000 0
0.001588 0.000000 0
-0.000181 0.000000 0
-0.001614 0.000000 0
-0.002820 0.000000 0
-0.003891 0.000000 0
-0.004838 0.000000 0
-0.005850 0.000000 0
-0.007028 0.000000 0
-0.008338 0.000000 0
-0.009541 0.000000 0
-0.010476 0.000000 0
-0.010821 0.000000 0
-0.010264 0.000000 0
-0.008444 0.000000 0
-0.006092 0.000000 0
-0.006309 0.000000 0
-0.007753 0.000000 0
-0.007071 0.000000 0
-0.006297 0.000000 0
-0.004828 0.000000 0
-0.002779 0.000000 0
-0.000486 0.000000 0
0.001956 0.000000 0
0.004971 0.000000 0
0.008410 0.000000 0
0.009821 0.000000 0
1.000000 -0.003086 0
1.006758 -0.009786 0
1.020903 -0.017399 0
1.043179 -0.025679 0
1.074368 -0.034192 0
1.114640 -0.041993 0
1.162795 -0.047698 0
1.216096 -0.049664 0
1.268742 -0.047297 0
1.316175 -0.041693 0
1.356007 -0.034417 0
1.387806 -0.026496 0
1.411630 -0.018041 0
1.427213 -0.008337 0
1.432513 0.003483 0
1.424442 0.017336 0
1.400921 0.031947 0
1.362418 0.045880 0
1.310422 0.058392 0
1.247318 0.067629 0
1.174738 0.072404 0
1.091855 0.101647 0
1.016416 0.126471 0
0.942750 0.084837 0
0.725936 0.104958 0
0.463391 0.186312 0
0.318889 0.154199 0
0.242019 0.108707 0
0.072093 0.077114 0
-0.004550 -0.048133 0
0.085090 -0.195199 0
0.290969 -0.275485 0
0.573492 -0.263817 0
0.872016 -0.230540 0
1.132958 -0.227322 0
1.344224 -0.217488 0
1.532790 -0.191386 0
1.695284 -0.145517 0
1.818742 -0.075089 0
1.878148 0.008062 0
1.867535 0.092802 0
1.792955 0.152352 0
1.678191 0.170081 0
1.548751 0.158561 0
1.424419 0.131017 0
1.318048 0.099347 0
1.236191 0.070748 0
1.179753 0.047399 0
1.144651 0.030597 0
1.123524 0.021197 0
1.107545 0.016411 0
1.088106 0.012288 0
1.055655 0.044382 0
0.993738 0.144300 0
0.901924 0.155801 0
0.777326 0.071265 0
0.618163 0.014049 0
0.609815 -0.029798 0
0.710446 -0.045198 0
0.759102 -0.060601 0
0.733456 -0.064722 0
0.670859 -0.004244 0
0.606748 0.076680 0
0.538859 0.111568 0
0.463921 0.092627 0
0.407986 0.043332 0
0.397385 -0.008716 0
0.428219 -0.039837 0
0.470549 -0.042713 0
0.494642 -0.022693 0
0.482351 0.013920 0
0.434232 0.055226 0
0.366879 0.080400 0
0.301956 0.076744 0
0.256738 0.053785 0
0.235097 0.026427 0
0.233878 0.002457 0
0.246215 -0.014595 0
0.267981 -0.026515 0
0.296995 -0.035694 0
0.331783 -0.042371 0
0.370897 -0.049737 0
0.415702 -0.058846 0
0.467213 -0.068195 0
0.526787 -0.077259 0
0.595071 -0.083308 0
0.670863 -0.084934 0
0.752855 -0.080733 0
0.838529 -0.067737 0
0.922478 -0.053631 0
0.997691 -0.051330 0
1.059006 -0.055371 0
1.111767 -0.053946 0
1.160619 -0.047220 0
1.203876 -0.036145 0
1.234117 -0.021064 0
1.249303 -0.005036 0
1.250783 0.010446 0
1.240098 0.027205 0
1.220058 0.026596 0
1.209752 0.018230 0
1.000000 -0.006734 0
1.006833 -0.020869 0
1.021250 -0.036402 0
1.044004 -0.053446 0
1.076770 -0.071442 0
1.120680 -0.088409 0
1.174908 -0.101438 0
1.238349 -0.105930 0
1.299489 -0.100062 0
1.352294 -0.087249 0
1.394683 -0.071616 0
1.427915 -0.055608 0
1.453457 -0.039393 0
1.473026 -0.020870 0
1.483772 0.002784 0
1.479905 0.031603 0
1.456838 0.062035 0
1.417096 0.090509 0
1.363474 0.115108 0
1.298057 0.135692 0
1.220017 0.155470 0
1.133268 0.158328 0
1.061586 0.149110 0
0.941802 0.290485 0
0.740221 0.479363 0
0.626520 0.407050 0
0.623014 0.221374 0
0.411406 0.246797 0
0.121345 0.246569 0
0.014282 -0.012997 0
0.012240 -0.295520 0
0.072777 -0.488404 0
0.214509 -0.581050 0
0.470042 -0.559470 0
0.760128 -0.472213 0
1.007300 -0.399836 0
1.183068 -0.351065 0
1.305136 -0.285958 0
1.414662 -0.182870 0
1.502800 -0.048800 0
1.562928 0.085186 0
1.588546 0.189337 0
1.569334 0.244197 0
1.512753 0.253764 0
1.437041 0.230695 0
1.362498 0.188222 0
1.302959 0.138288 0
1.261572 0.091533 0
1.235595 0.056222 0
1.220674 0.037099 0
1.209892 0.035412 0
1.191884 0.051884 0
1.155899 0.094363 0
1.130868 0.153725 0
1.148491 0.216408 0
1.096071 0.283757 0
1.000635 0.167508 0
0.866994 -0.092286 0
0.736409 -0.149290 0
0.697850 -0.023012 0
0.655688 0.088242 0
0.590803 0.126708 0
0.522320 0.132000 0
0.434786 0.142827 0
0.356363 0.130874 0
0.314197 0.066538 0
0.308100 -0.020232 0
0.323310 -0.073163 0
0.341547 -0.066420 0
0.344334 -0.011799 0
0.323024 0.060413 0
0.287023 0.115476 0
0.252588 0.132280 0
0.231266 0.110144 0
0.227250 0.066864 0
0.239355 0.022865 0
0.260756 -0.011114 0
0.286040 -0.034098 0
0.313493 -0.050775 0
0.341888 -0.063797 0
0.371777 -0.073897 0
0.403130 -0.083913 0
0.433024 -0.096311 0
0.461065 -0.111080 0
0.488183 -0.127852 0
0.517141 -0.144071 0
0.553698 -0.157779 0
0.601779 -0.167660 0
0.665251 -0.169617 0
0.747254 -0.159157 0
0.838563 -0.136522 0
0.922420 -0.114070 0
0.993676 -0.101607 0
1.049960 -0.092103 0
1.090085 -0.073493 0
1.116727 -0.045422 0
1.130476 -0.016660 0
1.137074 0.009211 0
1.139065 0.030730 0
1.142409 0.030352 0
1.142586 0.022342 0
1.000000 -0.009903 0
1.005339 -0.031018 0
1.018552 -0.054565 0
1.039513 -0.081192 0
1.072438 -0.110863 0
1.120293 -0.140126 0
1.182669 -0.165363 0
1.268963 -0.174241 0
1.344597 -0.161237 0
1.403354 -0.136881 0
1.446320 -0.110033 0
1.475726 -0.085266 0
1.498345 -0.063148 0
1.521564 -0.038648 0
1.541125 -0.003393 0
1.545573 0.044273 0
1.526540 0.094758 0
1.482153 0.139247 0
1.420524 0.177433 0
1.349098 0.211087 0
1.275301 0.237194 0
1.201292 0.260079 0
1.094894 0.317938 0
0.950585 0.406203 0
0.937367 0.420240 0
1.023705 0.303519 0
0.998682 0.369312 0
0.624308 0.610374 0
0.442931 0.474237 0
0.478613 0.060971 0
0.504430 -0.253696 0
0.447185 -0.477756 0
0.345174 -0.661084 0
0.321810 -0.776161 0
0.452376 -0.764583 0
0.676294 -0.640430 0
0.891049 -0.489225 0
1.038603 -0.377115 0
1.117693 -0.272757 0
1.181788 -0.140206 0
1.257137 0.007053 0
1.325429 0.145943 0
1.368519 0.245870 0
1.380437 0.290851 0
1.365626 0.281268 0
1.334711 0.233426 0
1.297719 0.171671 0
1.263714 0.114760 0
1.240984 0.071493 0
1.234064 0.046898 0
1.237470 0.045197 0
1.234806 0.066278 0
1.212924 0.105397 0
1.181529 0.151706 0
1.147302 0.190596 0
1.115690 0.219120 0
1.115480 0.243126 0
0.961984 0.234427 0
0.700457 0.123945 0
0.557647 0.020119 0
0.567137 0.042325 0
0.583700 0.129125 0
0.507859 0.232697 0
0.410744 0.277526 0
0.385851 0.213217 0
0.417095 0.091596 0
0.439044 -0.017828 0
0.423243 -0.073283 0
0.394871 -0.063735 0
0.373894 -0.004169 0
0.361436 0.071232 0
0.347458 0.125664 0
0.331774 0.136160 0
0.326420 0.102085 0
0.333851 0.045698 0
0.350014 -0.007077 0
0.370102 -0.044226 0
0.394263 -0.067330 0
0.425011 -0.082361 0
0.463484 -0.093975 0
0.510053 -0.103610 0
0.562209 -0.110981 0
0.614158 -0.116779 0
0.659233 -0.123351 0
0.689662 -0.133332 0
0.699211 -0.148820 0
0.691591 -0.169570 0
0.677530 -0.192284 0
0.671506 -0.213209 0
0.683183 -0.226941 0
0.717364 -0.226493 0
0.773103 -0.210481 0
0.836585 -0.181483 0
0.893732 -0.143626 0
0.938423 -0.102909 0
0.971634 -0.061452 0
0.993106 -0.025380 0
1.007120 0.001860 0
1.020922 0.021872 0
1.036560 0.023078 0
1.042303 0.018043 0
1.000000 -0.012059 0
1.001640 -0.039406 0
1.013897 -0.070571 0
1.029205 -0.107326 0
1.060288 -0.152218 0
1.110684 -0.198636 0
1.182665 -0.250104 0
1.326159 -0.267853 0
1.418813 -0.234448 0
1.469248 -0.188968 0
1.503876 -0.143984 0
1.520148 -0.107629 0
1.528596 -0.085228 0
1.552699 -0.063647 0
1.587790 -0.021222 0
1.611153 0.046190 0
1.608689 0.125457 0
1.572029 0.196527 0
1.503836 0.248165 0
1.410993 0.280916 0
1.311060 0.303277 0
1.214849 0.338736 0
1.129112 0.399817 0
1.084869 0.448011 0
1.113521 0.406243 0
1.176051 0.345735 0
0.896583 0.620770 0
0.611381 0.802546 0
0.643607 0.392262 0
0.682969 -0.074497 0
0.719179 -0.264093 0
0.747536 -0.329150 0
0.708087 -0.455678 0
0.585623 -0.666675 0
0.480695 -0.826699 0
0.495899 -0.838512 0
0.642343 -0.713377 0
0.823570 -0.512605 0
0.943609 -0.326059 0
1.011515 -0.188247 0
1.055891 -0.058458 0
1.099185 0.077952 0
1.151420 0.189186 0
1.195509 0.256654 0
1.214545 0.276419 0
1.212585 0.256125 0
1.199007 0.209282 0
1.186297 0.148266 0
1.184875 0.085869 0
1.201298 0.040610 0
1.231350 0.034667 0
1.256376 0.076428 0
1.253890 0.147638 0
1.214753 0.219346 0
1.143388 0.282246 0
1.053679 0.315577 0
0.976183 0.321213 0
0.924122 0.322736 0
0.872243 0.255046 0
0.771127 0.110308 0
0.673083 0.062189 0
0.556702 0.185987 0
0.455845 0.304956 0
0.463777 0.264835 0
0.534789 0.124524 0
0.576032 0.013346 0
0.568150 -0.026379 0
0.544231 -0.028988 0
0.527905 -0.017070 0
0.517011 0.021637 0
0.505975 0.086851 0
0.492985 0.145140 0
0.480003 0.153320 0
0.468596 0.108069 0
0.455744 0.043271 0
0.437843 -0.013383 0
0.420221 -0.055360 0
0.408119 -0.089005 0
0.412482 -0.119994 0
0.436712 -0.148837 0
0.480422 -0.172619 0
0.540889 -0.188016 0
0.613700 -0.193332 0
0.694527 -0.186581 0
0.776009 -0.167828 0
0.847182 -0.145996 0
0.892250 -0.136095 0
0.900116 -0.147572 0
0.872596 -0.175267 0
0.827468 -0.205012 0
0.787002 -0.226439 0
0.765869 -0.233288 0
0.766378 -0.222233 0
0.785640 -0.193937 0
0.818414 -0.151392 0
0.860013 -0.100102 0
0.904437 -0.052143 0
0.936675 -0.018602 0
0.952102 0.001294 0
0.953980 0.008975 0
0.958844 0.010596 0
1.000000 -0.011531 0
0.998529 -0.044902 0
1.008291 -0.082127 0
1.010653 -0.127579 0
1.038453 -0.192339 0
1.080614 -0.262499 0
1.166312 -0.380834 0
1.423597 -0.410385 0
1.496181 -0.304321 0
1.488892 -0.221941 0
1.492587 -0.160929 0
1.479736 -0.109982 0
1.446528 -0.095696 0
1.449318 -0.097839 0
1.502114 -0.061844 0
1.556316 0.023375 0
1.591946 0.133884 0
1.597033 0.244101 0
1.575608 0.338470 0
1.511421 0.403865 0
1.413426 0.433339 0
1.296070 0.442027 0
1.195151 0.447917 0
1.147030 0.421793 0
1.158592 0.329057 0
1.063693 0.520456 0
0.718719 0.933982 0
0.694889 0.863348 0
0.767076 0.402647 0
0.735104 -0.014603 0
0.690927 -0.318265 0
0.709192 -0.466667 0
0.794360 -0.499174 0
0.831478 -0.548772 0
0.735368 -0.674862 0
0.605844 -0.802081 0
0.568497 -0.816899 0
0.654347 -0.678384 0
0.788066 -0.460705 0
0.888678 -0.252492 0
0.938410 -0.080620 0
0.978612 0.050410 0
1.025645 0.149543 0
1.069406 0.227723 0
1.094487 0.264189 0
1.102525 0.248959 0
1.106335 0.197956 0
1.118890 0.128889 0
1.139792 0.056489 0
1.170479 0.000421 0
1.209032 -0.009883 0
1.247923 0.043736 0
1.273479 0.147018 0
1.271464 0.262206 0
1.241278 0.351669 0
1.205522 0.386324 0
1.164155 0.372682 0
1.130503 0.338367 0
1.115852 0.276939 0
1.071191 0.219278 0
0.913933 0.256750 0
0.707627 0.346363 0
0.649232 0.325623 0
0.696590 0.198582 0
0.730366 0.100963 0
0.721142 0.058236 0
0.702914 0.013974 0
0.699299 -0.033037 0
0.700204 -0.036514 0
0.695818 0.017763 0
0.686829 0.095259 0
0.680700 0.151637 0
0.673121 0.160551 0
0.652720 0.126346 0
0.618032 0.076454 0
0.577100 0.028448 0
0.540385 -0.014500 0
0.504415 -0.059588 0
0.474736 -0.110952 0
0.461938 -0.161913 0
0.468185 -0.207784 0
0.489723 -0.244256 0
0.523395 -0.270415 0
0.570372 -0.285657 0
0.634990 -0.285984 0
0.719524 -0.265059 0
0.815320 -0.222501 0
0.901887 -0.172626 0
0.953392 -0.140557 0
0.958736 -0.141344 0
0.926156 -0.164891 0
0.876885 -0.189854 0
0.832368 -0.201250 0
0.805375 -0.195658 0
0.797764 -0.177279 0
0.806235 -0.147472 0
0.825523 -0.102039 0
0.847159 -0.045801 0
0.863416 0.004571 0
0.881751 0.016340 0
0.888589 0.008138 0
1.000000 -0.010578 0
0.998579 -0.047686 0
0.999574 -0.082693 0
0.990541 -0.137486 0
1.011813 -0.222176 0
1.012755 -0.326493 0
1.123303 -0.593084 0
1.455636 -0.597718 0
1.355664 -0.299740 0
1.229880 -0.185370 0
1.128500 -0.134824 0
1.169440 -0.061567 0
0.993522 -0.054807 0
0.872708 -0.119231 0
0.999117 -0.128219 0
1.076633 -0.043640 0
1.243129 0.084740 0
1.326118 0.212866 0
1.416302 0.333778 0
1.435257 0.443098 0
1.428689 0.518629 0
1.380596 0.557011 0
1.304080 0.548857 0
1.228948 0.484570 0
1.125969 0.489579 0
0.830962 0.785607 0
0.700218 0.989573 0
0.852046 0.754187 0
0.927479 0.352045 0
0.908340 0.001650 0
0.886752 -0.238184 0
0.804139 -0.432585 0
0.754690 -0.577966 0
0.809656 -0.607686 0
0.862697 -0.601068 0
0.798455 -0.671644 0
0.679463 -0.761884 0
0.642488 -0.732177 0
0.706464 -0.560393 0
0.793510 -0.338595 0
0.862616 -0.148395 0
0.909612 -0.009286 0
0.927139 0.098389 0
0.927497 0.187808 0
0.942808 0.243296 0
0.988005 0.244274 0
1.042227 0.192914 0
1.093031 0.114806 0
1.140617 0.034278 0
1.173892 -0.028632 0
1.185750 -0.042780 0
1.181279 0.011979 0
1.174455 0.124095 0
1.172098 0.251545 0
1.174007 0.348186 0
1.177695 0.392699 0
1.171932 0.396231 0
1.167354 0.371038 0
1.162251 0.314357 0
1.088512 0.312227 0
0.935694 0.425753 0
0.856194 0.450687 0
0.892209 0.315993 0
0.920109 0.183701 0
0.919309 0.099973 0
0.924259 0.040800 0
0.937321 -0.004535 0
0.935497 -0.026278 0
0.915183 -0.013587 0
0.899037 0.035014 0
0.901659 0.101970 0
0.915729 0.158850 0
0.927568 0.181302 0
0.923506 0.163160 0
0.902010 0.118894 0
0.870436 0.064267 0
0.825475 0.017328 0
0.774494 -0.023353 0
0.729102 -0.077515 0
0.700233 -0.142283 0
0.692935 -0.200402 0
0.694686 -0.243223 0
0.700142 -0.273977 0
0.701327 -0.298173 0
0.695883 -0.316977 0
0.691214 -0.326323 0
0.707032 -0.318454 0
0.755464 -0.285641 0
0.827091 -0.232112 0
0.895398 -0.177772 0
0.937408 -0.144585 0
0.942583 -0.139497 0
0.917907 -0.150720 0
0.881859 -0.159330 0
0.846806 -0.152247 0
0.816759 -0.127858 0
0.800848 -0.093063 0
0.808625 -0.056492 0
0.840222 -0.033295 0
0.886418 -0.016195 0
0.896223 -0.003222 0
1.000000 -0.010102 0
1.000899 -0.044468 0
0.987747 -0.074088 0
0.979449 -0.139817 0
0.966615 -0.214552 0
0.928244 -0.373987 0
1.004872 -0.823713 0
0.713929 -0.564183 0
-0.000331 0.000000 0
0.001780 0.000000 0
0.401044 -0.105713 0
0.362092 0.024998 0
0.216961 0.201038 0
0.226494 -0.103432 0
0.336213 -0.265768 0
0.238655 -0.220636 0
0.511464 -0.115601 0
0.518825 0.070929 0
0.959189 0.229331 0
1.136291 0.391477 0
1.209578 0.487999 0
1.246253 0.566636 0
1.264259 0.599564 0
1.230883 0.599903 0
1.081458 0.727042 0
0.872491 0.946206 0
0.919715 0.912896 0
1.060828 0.636086 0
1.100928 0.346351 0
0.993740 0.026122 0
0.896331 -0.214067 0
0.791316 -0.334608 0
0.666238 -0.504693 0
0.625252 -0.656782 0
0.737759 -0.663665 0
0.836486 -0.618851 0
0.782973 -0.660936 0
0.689730 -0.705389 0
0.692734 -0.611731 0
0.760090 -0.408647 0
0.805766 -0.196727 0
0.806696 -0.014116 0
0.777745 0.131654 0
0.770199 0.212050 0
0.840001 0.203678 0
0.926691 0.149537 0
0.966613 0.092927 0
0.982562 0.030496 0
1.000641 -0.024375 0
1.010959 -0.044715 0
0.999000 -0.017272 0
0.968415 0.055029 0
0.936226 0.156197 0
0.921467 0.262652 0
0.928895 0.346070 0
0.951431 0.388398 0
0.978350 0.383021 0
0.999091 0.348047 0
0.983443 0.355781 0
0.900321 0.445834 0
0.849607 0.489068 0
0.924931 0.389849 0
1.002100 0.261708 0
1.032643 0.171483 0
1.043995 0.096813 0
1.051283 0.040225 0
1.052197 0.002738 0
1.046543 -0.010898 0
1.039527 -0.000053 0
1.042381 0.031288 0
1.064674 0.078569 0
1.104278 0.125730 0
1.150126 0.152777 0
1.184660 0.151907 0
1.194722 0.129526 0
1.175819 0.104985 0
1.129705 0.081444 0
1.078757 0.036788 0
1.035013 -0.036688 0
0.999802 -0.125744 0
0.975754 -0.202234 0
0.965046 -0.251459 0
0.966052 -0.277052 0
0.970905 -0.281395 0
0.968064 -0.275868 0
0.948596 -0.276204 0
0.908770 -0.286748 0
0.856612 -0.292681 0
0.818541 -0.280487 0
0.818826 -0.251658 0
0.853286 -0.212073 0
0.901043 -0.170348 0
0.930941 -0.140522 0
0.935351 -0.124554 0
0.923392 -0.112176 0
0.911764 -0.101510 0
0.912662 -0.093901 0
0.924248 -0.085172 0
0.946191 -0.073218 0
0.966555 -0.039657 0
0.972115 -0.011440 0
1.000000 -0.011472 0
1.004106 -0.035427 0
0.971523 -0.061242 0
0.979056 -0.116354 0
0.898332 -0.170972 0
0.880350 -0.364750 0
0.666046 -0.457328 0
0.000000 0.003421 0
-0.591969 0.187904 0
-0.490972 0.000000 0
0.000000 0.000000 0
-0.096323 0.131908 0
0.027690 0.080792 0
0.032091 -0.238482 0
-0.144351 -0.140380 0
-0.339484 -0.218891 0
-0.413492 -0.195430 0
-0.313129 -0.234859 0
0.202351 -0.283689 0
0.645760 0.192709 0
0.916462 0.408666 0
1.067717 0.502328 0
1.136027 0.564226 0
1.140360 0.667369 0
1.069297 0.847969 0
1.084606 0.947349 0
1.243807 0.801234 0
1.324665 0.572972 0
1.240849 0.419131 0
1.053546 0.206243 0
0.825451 -0.035763 0
0.683060 -0.202495 0
0.609783 -0.411905 0
0.541074 -0.679210 0
0.559553 -0.812305 0
0.726111 -0.716862 0
0.812290 -0.615132 0
0.732991 -0.641942 0
0.668650 -0.630757 0
0.719664 -0.451630 0
0.789419 -0.195005 0
0.817425 0.018731 0
0.846850 0.134882 0
0.909771 0.125549 0
0.924391 0.086801 0
0.867344 0.117659 0
0.811883 0.137039 0
0.781184 0.080775 0
0.757915 0.005879 0
0.731275 -0.026993 0
0.700982 -0.000238 0
0.670687 0.074750 0
0.646578 0.171040 0
0.641638 0.258874 0
0.661589 0.318221 0
0.699483 0.343243 0
0.736836 0.348571 0
0.748026 0.365945 0
0.729488 0.413127 0
0.737918 0.446063 0
0.832481 0.401143 0
0.943785 0.298194 0
1.004431 0.208281 0
1.044609 0.141807 0
1.066778 0.081334 0
1.081602 0.032599 0
1.091119 0.000206 0
1.098311 -0.013606 0
1.109588 -0.009423 0
1.129439 0.009869 0
1.162314 0.040075 0
1.210576 0.073400 0
1.265336 0.100922 0
1.311146 0.118566 0
1.332592 0.127737 0
1.323566 0.129287 0
1.296168 0.114393 0
1.260570 0.071341 0
1.217862 0.001443 0
1.172179 -0.083021 0
1.128867 -0.165643 0
1.103323 -0.233518 0
1.097577 -0.279834 0
1.110809 -0.300182 0
1.136997 -0.294664 0
1.163329 -0.267026 0
1.169251 -0.226466 0
1.140723 -0.195408 0
1.082407 -0.194323 0
1.010803 -0.212512 0
0.946014 -0.226798 0
0.905548 -0.217149 0
0.904405 -0.185024 0
0.923861 -0.151776 0
0.944784 -0.128657 0
0.959930 -0.117124 0
0.970212 -0.105543 0
0.975087 -0.090017 0
0.973724 -0.075599 0
0.969968 -0.042115 0
0.970906 -0.014296 0
1.000000 -0.014205 0
0.987660 -0.015989 0
0.974631 -0.049039 0
0.950626 -0.066626 0
0.883672 -0.115847 0
0.834793 -0.141704 0
0.494808 -0.016988 0
0.373257 0.028239 0
0.000000 0.000000 0
0.000000 0.000000 0
0.000000 0.000000 0
0.000000 0.000000 0
0.125210 0.065926 0
0.063152 0.068610 0
-0.346896 0.105806 0
-0.451970 0.048504 0
-0.834803 -0.141956 0
-0.529405 -0.544915 0
-0.619604 -0.729560 0
0.032439 -0.322635 0
0.552599 0.066042 0
0.864112 0.347069 0
0.985463 0.526919 0
1.039701 0.666631 0
1.109793 0.782795 0
1.274884 0.771693 0
1.407971 0.672835 0
1.360994 0.639043 0
1.206022 0.617468 0
1.038982 0.441516 0
0.829690 0.156415 0
0.738629 -0.118943 0
0.779863 -0.362710 0
0.793382 -0.606556 0
0.656164 -0.848706 0
0.637534 -0.871591 0
0.782408 -0.667819 0
0.816212 -0.561751 0
0.717727 -0.598407 0
0.684723 -0.529420 0
0.774176 -0.294491 0
0.886874 -0.071550 0
0.957940 0.039304 0
0.960833 0.134505 0
0.878652 0.246101 0
0.787479 0.262043 0
0.740391 0.179084 0
0.699456 0.084461 0
0.644115 0.025532 0
0.580048 0.012215 0
0.515068 0.043313 0
0.460018 0.109432 0
0.428040 0.185244 0
0.423678 0.247639 0
0.444213 0.288224 0
0.476777 0.313149 0
0.506617 0.334476 0
0.534462 0.355395 0
0.583762 0.365889 0
0.675785 0.342841 0
0.791781 0.283200 0
0.885446 0.217899 0
0.947178 0.160884 0