# vtk DataFile Version 2.0
generated by CFD-lab course output (written by Tobias Neckel) 
ASCII

DATASET STRUCTURED_GRID
DIMENSIONS  101 21 1 
POINTS 2121 float

0.000000 0.000000 0
0.100000 0.000000 0
0.200000 0.000000 0
0.300000 0.000000 0
0.400000 0.000000 0
0.500000 0.000000 0
0.600000 0.000000 0
0.700000 0.000000 0
0.800000 0.000000 0
0.900000 0.000000 0
1.000000 0.000000 0
1.100000 0.000000 0
1.200000 0.000000 0
1.300000 0.000000 0
1.400000 0.000000 0
1.500000 0.000000 0
1.600000 0.000000 0
1.700000 0.000000 0
1.800000 0.000000 0
1.900000 0.000000 0
2.000000 0.000000 0
2.100000 0.000000 0
2.200000 0.000000 0
2.300000 0.000000 0
2.400000 0.000000 0
2.500000 0.000000 0
2.600000 0.000000 0
2.700000 0.000000 0
2.800000 0.000000 0
2.900000 0.000000 0
3.000000 0.000000 0
3.100000 0.000000 0
3.200000 0.000000 0
3.300000 0.000000 0
3.400000 0.000000 0
3.500000 0.000000 0
3.600000 0.000000 0
3.700000 0.000000 0
3.800000 0.000000 0
3.900000 0.000000 0
4.000000 0.000000 0
4.100000 0.000000 0
4.200000 0.000000 0
4.300000 0.000000 0
4.400000 0.000000 0
4.500000 0.000000 0
4.600000 0.000000 0
4.700000 0.000000 0
4.800000 0.000000 0
4.900000 0.000000 0
5.000000 0.000000 0
5.100000 0.000000 0
5.200000 0.000000 0
5.300000 0.000000 0
5.400000 0.000000 0
5.500000 0.000000 0
5.600000 0.000000 0
5.700000 0.000000 0
5.800000 0.000000 0
5.900000 0.000000 0
6.000000 0.000000 0
6.100000 0.000000 0
6.200000 0.000000 0
6.300000 0.000000 0
6.400000 0.000000 0
6.500000 0.000000 0
6.600000 0.000000 0
6.700000 0.000000 0
6.800000 0.000000 0
6.900000 0.000000 0
7.000000 0.000000 0
7.100000 0.000000 0
7.200000 0.000000 0
7.300000 0.000000 0
7.400000 0.000000 0
7.500000 0.000000 0
7.600000 0.000000 0
7.700000 0.000000 0
7.800000 0.000000 0
7.900000 0.000000 0
8.000000 0.000000 0
8.100000 0.000000 0
8.200000 0.000000 0
8.300000 0.000000 0
8.400000 0.000000 0
8.500000 0.000000 0
8.600000 0.000000 0
8.700000 0.000000 0
8.800000 0.000000 0
8.900000 0.000000 0
9.000000 0.000000 0
9.100000 0.000000 0
9.200000 0.000000 0
9.300000 0.000000 0
9.400000 0.000000 0
9.500000 0.000000 0
9.600000 0.000000 0
9.700000 0.000000 0
9.800000 0.000000 0
9.900000 0.000000 0
10.000000 0.000000 0
0.000000 0.100000 0
0.100000 0.100000 0
0.200000 0.100000 0
0.300000 0.100000 0
0.400000 0.100000 0
0.500000 0.100000 0
0.600000 0.100000 0
0.700000 0.100000 0
0.800000 0.100000 0
0.900000 0.100000 0
1.000000 0.100000 0
1.100000 0.100000 0
1.200000 0.100000 0
1.300000 0.100000 0
1.400000 0.100000 0
1.500000 0.100000 0
1.600000 0.100000 0
1.700000 0.100000 0
1.800000 0.100000 0
1.900000 0.100000 0
2.000000 0.100000 0
2.100000 0.100000 0
2.200000 0.100000 0
2.300000 0.100000 0
2.400000 0.100000 0
2.500000 0.100000 0
2.600000 0.100000 0
2.700000 0.100000 0
2.800000 0.100000 0
2.900000 0.100000 0
3.000000 0.100000 0
3.100000 0.100000 0
3.200000 0.100000 0
3.300000 0.100000 0
3.400000 0.100000 0
3.500000 0.100000 0
3.600000 0.100000 0
3.700000 0.100000 0
3.800000 0.100000 0
3.900000 0.100000 0
4.000000 0.100000 0
4.100000 0.100000 0
4.200000 0.100000 0
4.300000 0.100000 0
4.400000 0.100000 0
4.500000 0.100000 0
4.600000 0.100000 0
4.700000 0.100000 0
4.800000 0.100000 0
4.900000 0.100000 0
5.000000 0.100000 0
5.100000 0.100000 0
5.200000 0.100000 0
5.300000 0.100000 0
5.400000 0.100000 0
5.500000 0.100000 0
5.600000 0.100000 0
5.700000 0.100000 0
5.800000 0.100000 0
5.900000 0.100000 0
6.000000 0.100000 0
6.100000 0.100000 0
6.200000 0.100000 0
6.300000 0.100000 0
6.400000 0.100000 0
6.500000 0.100000 0
6.600000 0.100000 0
6.700000 0.100000 0
6.800000 0.100000 0
6.900000 0.100000 0
7.000000 0.100000 0
7.100000 0.100000 0
7.200000 0.100000 0
7.300000 0.100000 0
7.400000 0.100000 0
7.500000 0.100000 0
7.600000 0.100000 0
7.700000 0.100000 0
7.800000 0.100000 0
7.900000 0.100000 0
8.000000 0.100000 0
8.100000 0.100000 0
8.200000 0.100000 0
8.300000 0.100000 0
8.400000 0.100000 0
8.500000 0.100000 0
8.600000 0.100000 0
8.700000 0.100000 0
8.800000 0.100000 0
8.900000 0.100000 0
9.000000 0.100000 0
9.100000 0.100000 0
9.200000 0.100000 0
9.300000 0.100000 0
9.400000 0.100000 0
9.500000 0.100000 0
9.600000 0.100000 0
9.700000 0.100000 0
9.800000 0.100000 0
9.900000 0.100000 0
10.000000 0.100000 0
0.000000 0.200000 0
0.100000 0.200000 0
0.200000 0.200000 0
0.300000 0.200000 0
0.400000 0.200000 0
0.500000 0.200000 0
0.600000 0.200000 0
0.700000 0.200000 0
0.800000 0.200000 0
0.900000 0.200000 0
1.000000 0.200000 0
1.100000 0.200000 0
1.200000 0.200000 0
1.300000 0.200000 0
1.400000 0.200000 0
1.500000 0.200000 0
1.600000 0.200000 0
1.700000 0.200000 0
1.800000 0.200000 0
1.900000 0.200000 0
2.000000 0.200000 0
2.100000 0.200000 0
2.200000 0.200000 0
2.300000 0.200000 0
2.400000 0.200000 0
2.500000 0.200000 0
2.600000 0.200000 0
2.700000 0.200000 0
2.800000 0.200000 0
2.900000 0.200000 0
3.000000 0.200000 0
3.100000 0.200000 0
3.200000 0.200000 0
3.300000 0.200000 0
3.400000 0.200000 0
3.500000 0.200000 0
3.600000 0.200000 0
3.700000 0.200000 0
3.800000 0.200000 0
3.900000 0.200000 0
4.000000 0.200000 0
4.100000 0.200000 0
4.200000 0.200000 0
4.300000 0.200000 0
4.400000 0.200000 0
4.500000 0.200000 0
4.600000 0.200000 0
4.700000 0.200000 0
4.800000 0.200000 0
4.900000 0.200000 0
5.000000 0.200000 0
5.100000 0.200000 0
5.200000 0.200000 0
5.300000 0.200000 0
5.400000 0.200000 0
5.500000 0.200000 0
5.600000 0.200000 0
5.700000 0.200000 0
5.800000 0.200000 0
5.900000 0.200000 0
6.000000 0.200000 0
6.100000 0.200000 0
6.200000 0.200000 0
6.300000 0.200000 0
6.400000 0.200000 0
6.500000 0.200000 0
6.600000 0.200000 0
6.700000 0.200000 0
6.800000 0.200000 0
6.900000 0.200000 0
7.000000 0.200000 0
7.100000 0.200000 0
7.200000 0.200000 0
7.300000 0.200000 0
7.400000 0.200000 0
7.500000 0.200000 0
7.600000 0.200000 0
7.700000 0.200000 0
7.800000 0.200000 0
7.900000 0.200000 0
8.000000 0.200000 0
8.100000 0.200000 0
8.200000 0.200000 0
8.300000 0.200000 0
8.400000 0.200000 0
8.500000 0.200000 0
8.600000 0.200000 0
8.700000 0.200000 0
8.800000 0.200000 0
8.900000 0.200000 0
9.000000 0.200000 0
9.100000 0.200000 0
9.200000 0.200000 0
9.300000 0.200000 0
9.400000 0.200000 0
9.500000 0.200000 0
9.600000 0.200000 0
9.700000 0.200000 0
9.800000 0.200000 0
9.900000 0.200000 0
10.000000 0.200000 0
0.000000 0.300000 0
0.100000 0.300000 0
0.200000 0.300000 0
0.300000 0.300000 0
0.400000 0.300000 0
0.500000 0.300000 0
0.600000 0.300000 0
0.700000 0.300000 0
0.800000 0.300000 0
0.900000 0.300000 0
1.000000 0.300000 0
1.100000 0.300000 0
1.200000 0.300000 0
1.300000 0.300000 0
1.400000 0.300000 0
1.500000 0.300000 0
1.600000 0.300000 0
1.700000 0.300000 0
1.800000 0.300000 0
1.900000 0.300000 0
2.000000 0.300000 0
2.100000 0.300000 0
2.200000 0.300000 0
2.300000 0.300000 0
2.400000 0.300000 0
2.500000 0.300000 0
2.600000 0.300000 0
2.700000 0.300000 0
2.800000 0.300000 0
2.900000 0.300000 0
3.000000 0.300000 0
3.100000 0.300000 0
3.200000 0.300000 0
3.300000 0.300000 0
3.400000 0.300000 0
3.500000 0.300000 0
3.600000 0.300000 0
3.700000 0.300000 0
3.800000 0.300000 0
3.900000 0.300000 0
4.000000 0.300000 0
4.100000 0.300000 0
4.200000 0.300000 0
4.300000 0.300000 0
4.400000 0.300000 0
4.500000 0.300000 0
4.600000 0.300000 0
4.700000 0.300000 0
4.800000 0.300000 0
4.900000 0.300000 0
5.000000 0.300000 0
5.100000 0.300000 0
5.200000 0.300000 0
5.300000 0.300000 0
5.400000 0.300000 0
5.500000 0.300000 0
5.600000 0.300000 0
5.700000 0.300000 0
5.800000 0.300000 0
5.900000 0.300000 0
6.000000 0.300000 0
6.100000 0.300000 0
6.200000 0.300000 0
6.300000 0.300000 0
6.400000 0.300000 0
6.500000 0.300000 0
6.600000 0.300000 0
6.700000 0.300000 0
6.800000 0.300000 0
6.900000 0.300000 0
7.000000 0.300000 0
7.100000 0.300000 0
7.200000 0.300000 0
7.300000 0.300000 0
7.400000 0.300000 0
7.500000 0.300000 0
7.600000 0.300000 0
7.700000 0.300000 0
7.800000 0.300000 0
7.900000 0.300000 0
8.000000 0.300000 0
8.100000 0.300000 0
8.200000 0.300000 0
8.300000 0.300000 0
8.400000 0.300000 0
8.500000 0.300000 0
8.600000 0.300000 0
8.700000 0.300000 0
8.800000 0.300000 0
8.900000 0.300000 0
9.000000 0.300000 0
9.100000 0.300000 0
9.200000 0.300000 0
9.300000 0.300000 0
9.400000 0.300000 0
9.500000 0.300000 0
9.600000 0.300000 0
9.700000 0.300000 0
9.800000 0.300000 0
9.900000 0.300000 0
10.000000 0.300000 0
0.000000 0.400000 0
0.100000 0.400000 0
0.200000 0.400000 0
0.300000 0.400000 0
0.400000 0.400000 0
0.500000 0.400000 0
0.600000 0.400000 0
0.700000 0.400000 0
0.800000 0.400000 0
0.900000 0.400000 0
1.000000 0.400000 0
1.100000 0.400000 0
1.200000 0.400000 0
1.300000 0.400000 0
1.400000 0.400000 0
1.500000 0.400000 0
1.600000 0.400000 0
1.700000 0.400000 0
1.800000 0.400000 0
1.900000 0.400000 0
2.000000 0.400000 0
2.100000 0.400000 0
2.200000 0.400000 0
2.300000 0.400000 0
2.400000 0.400000 0
2.500000 0.400000 0
2.600000 0.400000 0
2.700000 0.400000 0
2.800000 0.400000 0
2.900000 0.400000 0
3.000000 0.400000 0
3.100000 0.400000 0
3.200000 0.400000 0
3.300000 0.400000 0
3.400000 0.400000 0
3.500000 0.400000 0
3.600000 0.400000 0
3.700000 0.400000 0
3.800000 0.400000 0
3.900000 0.400000 0
4.000000 0.400000 0
4.100000 0.400000 0
4.200000 0.400000 0
4.300000 0.400000 0
4.400000 0.400000 0
4.500000 0.400000 0
4.600000 0.400000 0
4.700000 0.400000 0
4.800000 0.400000 0
4.900000 0.400000 0
5.000000 0.400000 0
5.100000 0.400000 0
5.200000 0.400000 0
5.300000 0.400000 0
5.400000 0.400000 0
5.500000 0.400000 0
5.600000 0.400000 0
5.700000 0.400000 0
5.800000 0.400000 0
5.900000 0.400000 0
6.000000 0.400000 0
6.100000 0.400000 0
6.200000 0.400000 0
6.300000 0.400000 0
6.400000 0.400000 0
6.500000 0.400000 0
6.600000 0.400000 0
6.700000 0.400000 0
6.800000 0.400000 0
6.900000 0.400000 0
7.000000 0.400000 0
7.100000 0.400000 0
7.200000 0.400000 0
7.300000 0.400000 0
7.400000 0.400000 0
7.500000 0.400000 0
7.600000 0.400000 0
7.700000 0.400000 0
7.800000 0.400000 0
7.900000 0.400000 0
8.000000 0.400000 0
8.100000 0.400000 0
8.200000 0.400000 0
8.300000 0.400000 0
8.400000 0.400000 0
8.500000 0.400000 0
8.600000 0.400000 0
[...]
POINT_DATA 2121 

VECTORS velocity float
0.500000 0.000000 0
0.000018 0.000000 0
0.000065 0.000000 0
0.000179 0.000000 0
0.000366 0.000000 0
0.000593 0.000000 0
0.000803 0.000000 0
0.000970 0.000000 0
0.001130 0.000000 0
0.001297 0.000000 0
0.001461 0.000000 0
0.001607 0.000000 0
0.001768 0.000000 0
0.001974 0.000000 0
0.002182 0.000000 0
0.002308 0.000000 0
0.002300 0.000000 0
0.002178 0.000000 0
0.001984 0.000000 0
0.001566 0.000000 0
0.001055 0.000000 0
0.000209 0.000000 0
-0.000632 0.000000 0
-0.001184 0.000000 0
-0.001397 0.000000 0
-0.001433 0.000000 0
-0.001417 0.000000 0
-0.001388 0.000000 0
-0.001344 0.000000 0
-0.001285 0.000000 0
-0.001217 0.000000 0
-0.001146 0.000000 0
-0.001075 0.000000 0
-0.001007 0.000000 0
-0.000940 0.000000 0
-0.000876 0.000000 0
-0.000815 0.000000 0
-0.000758 0.000000 0
-0.000704 0.000000 0
-0.000654 0.000000 0
-0.000609 0.000000 0
-0.000567 0.000000 0
-0.000529 0.000000 0
-0.000495 0.000000 0
-0.000464 0.000000 0
-0.000437 0.000000 0
-0.000413 0.000000 0
-0.000392 0.000000 0
-0.000374 0.000000 0
-0.000356 0.000000 0
-0.000343 0.000000 0
-0.000332 0.000000 0
-0.000315 0.000000 0
-0.000304 0.000000 0
-0.000306 0.000000 0
-0.000299 0.000000 0
-0.000290 0.000000 0
-0.000282 0.000000 0
-0.000275 0.000000 0
-0.000270 0.000000 0
-0.000266 0.000000 0
-0.000262 0.000000 0
-0.000259 0.000000 0
-0.000257 0.000000 0
-0.000255 0.000000 0
-0.000254 0.000000 0
-0.000253 0.000000 0
-0.000252 0.000000 0
-0.000251 0.000000 0
-0.000250 0.000000 0
-0.000250 0.000000 0
-0.000249 0.000000 0
-0.000249 0.000000 0
-0.000249 0.000000 0
-0.000249 0.000000 0
-0.000248 0.000000 0
-0.000248 0.000000 0
-0.000248 0.000000 0
-0.000248 0.000000 0
-0.000248 0.000000 0
-0.000249 0.000000 0
-0.000249 0.000000 0
-0.000249 0.000000 0
-0.000249 0.000000 0
-0.000249 0.000000 0
-0.000249 0.000000 0
-0.000249 0.000000 0
-0.000250 0.000000 0
-0.000250 0.000000 0
-0.000250 0.000000 0
-0.000250 0.000000 0
-0.000251 0.000000 0
-0.000251 0.000000 0
-0.000251 0.000000 0
-0.000251 0.000000 0
-0.000252 0.000000 0
-0.000252 0.000000 0
-0.000252 0.000000 0
-0.000252 0.000000 0
-0.000253 0.000000 0
-0.000253 0.000000 0
1.000000 -0.004935 0
1.010494 -0.015169 0
1.031819 -0.025830 0
1.064159 -0.036277 0
1.107149 -0.045706 0
1.159642 -0.052918 0
1.218929 -0.056302 0
1.280854 -0.053547 0
1.336144 -0.043389 0
1.375823 -0.027683 0
1.395902 -0.009701 0
1.395976 0.007845 0
1.378414 0.023418 0
1.345933 0.036293 0
1.301860 0.045806 0
1.250174 0.051456 0
1.195018 0.053258 0
1.140166 0.051899 0
1.088137 0.047730 0
1.040903 0.042315 0
0.998925 0.035873 0
0.967307 0.026617 0
0.948284 0.016201 0
0.937845 0.007945 0
0.932874 0.002939 0
0.931362 0.000146 0
0.932142 -0.001574 0
0.934429 -0.002724 0
0.937634 -0.003444 0
0.941343 -0.003819 0
0.945282 -0.003949 0
0.949277 -0.003926 0
0.953212 -0.003810 0
0.957007 -0.003636 0
0.960607 -0.003425 0
0.963974 -0.003187 0
0.967089 -0.002939 0
0.969940 -0.002686 0
0.972529 -0.002431 0
0.974864 -0.002189 0
0.976955 -0.001964 0
0.978816 -0.001751 0
0.980470 -0.001550 0
0.981932 -0.001367 0
0.983218 -0.001203 0
0.984345 -0.001058 0
0.985333 -0.000928 0
0.986198 -0.000814 0
0.986955 -0.000715 0
0.987614 -0.000613 0
0.988185 -0.000545 0
0.988685 -0.000489 0
0.989098 -0.000375 0
0.989458 -0.000300 0
0.989811 -0.000318 0
0.990112 -0.000321 0
0.990373 -0.000280 0
0.990598 -0.000235 0
0.990790 -0.000195 0
0.990951 -0.000160 0
0.991086 -0.000133 0
0.991199 -0.000111 0
0.991293 -0.000093 0
0.991373 -0.000079 0
0.991440 -0.000067 0
0.991496 -0.000058 0
0.991543 -0.000050 0
0.991583 -0.000043 0
0.991616 -0.000037 0
0.991644 -0.000032 0
0.991668 -0.000028 0
0.991687 -0.000025 0
0.991704 -0.000022 0
0.991717 -0.000019 0
0.991728 -0.000017 0
0.991737 -0.000015 0
0.991745 -0.000013 0
0.991751 -0.000012 0
0.991756 -0.000011 0
0.991759 -0.000010 0
0.991762 -0.000009 0
0.991764 -0.000009 0
0.991766 -0.000008 0
0.991767 -0.000008 0
0.991768 -0.000007 0
0.991769 -0.000007 0
0.991770 -0.000007 0
0.991771 -0.000008 0
0.991772 -0.000008 0
0.991774 -0.000009 0
0.991777 -0.000010 0
0.991782 -0.000012 0
0.991789 -0.000015 0
0.991800 -0.000019 0
0.991816 -0.000028 0
0.991840 -0.000034 0
0.991876 -0.000061 0
0.991934 -0.000086 0
0.992022 -0.000212 0
0.992179 -0.000427 0
0.992405 -0.000512 0
1.000000 -0.010483 0
1.010713 -0.031802 0
1.032594 -0.053654 0
1.066290 -0.075318 0
1.112033 -0.095470 0
1.169860 -0.111766 0
1.237565 -0.121196 0
1.315025 -0.117198 0
1.384905 -0.094952 0
1.432340 -0.059739 0
1.454243 -0.020132 0
1.450558 0.017509 0
1.426911 0.050063 0
1.386764 0.076575 0
1.333853 0.095780 0
1.273350 0.106863 0
1.212369 0.110029 0
1.156921 0.106901 0
1.104651 0.099282 0
1.055058 0.089231 0
1.008243 0.073613 0
0.969278 0.050658 0
0.950313 0.029479 0
0.942345 0.015424 0
0.939001 0.006497 0
0.938494 0.000745 0
0.939961 -0.003056 0
0.942706 -0.005482 0
0.946219 -0.006906 0
0.950166 -0.007640 0
0.954331 -0.007927 0
0.958551 -0.007924 0
0.962706 -0.007725 0
0.966701 -0.007392 0
0.970472 -0.006966 0
0.973980 -0.006482 0
0.977201 -0.005966 0
0.980130 -0.005441 0
0.982775 -0.004926 0
0.985147 -0.004429 0
0.987259 -0.003956 0
0.989132 -0.003520 0
0.990787 -0.003121 0
0.992246 -0.002754 0
0.993527 -0.002419 0
0.994651 -0.002123 0
0.995632 -0.001862 0
0.996492 -0.001631 0
0.997237 -0.001424 0
0.997877 -0.001239 0
0.998460 -0.001081 0
0.998929 -0.000922 0
0.999326 -0.000783 0
0.999745 -0.000723 0
1.000112 -0.000664 0
1.000388 -0.000573 0
1.000621 -0.000497 0
1.000822 -0.000427 0
1.000996 -0.000363 0
1.001146 -0.000307 0
1.001275 -0.000259 0
1.001385 -0.000219 0
1.001479 -0.000185 0
1.001558 -0.000157 0
1.001626 -0.000134 0
1.001683 -0.000114 0
1.001732 -0.000098 0
1.001773 -0.000084 0
1.001808 -0.000072 0
1.001837 -0.000062 0
1.001861 -0.000053 0
1.001882 -0.000046 0
1.001899 -0.000040 0
1.001914 -0.000035 0
1.001926 -0.000030 0
1.001936 -0.000026 0
1.001944 -0.000023 0
1.001951 -0.000020 0
1.001956 -0.000018 0
1.001961 -0.000016 0
1.001964 -0.000014 0
1.001967 -0.000013 0
1.001969 -0.000012 0
1.001971 -0.000011 0
1.001972 -0.000011 0
1.001974 -0.000011 0
1.001975 -0.000011 0
1.001976 -0.000011 0
1.001978 -0.000012 0
1.001980 -0.000014 0
1.001983 -0.000017 0
1.001988 -0.000021 0
1.001995 -0.000026 0
1.002004 -0.000035 0
1.002019 -0.000048 0
1.002035 -0.000068 0
1.002068 -0.000102 0
1.002094 -0.000155 0
1.002155 -0.000253 0
1.002132 -0.000391 0
1.002076 -0.000461 0
1.000000 -0.015641 0
1.009374 -0.047754 0
1.030063 -0.081402 0
1.063835 -0.115710 0
1.111805 -0.149269 0
1.176304 -0.178444 0
1.254772 -0.201460 0
1.366062 -0.200881 0
1.456628 -0.160697 0
1.512763 -0.097012 0
1.536877 -0.027910 0
1.531335 0.035185 0
1.496112 0.087221 0
1.437972 0.129359 0
1.366481 0.159228 0
1.292113 0.172948 0
1.216672 0.169694 0
1.138859 0.159623 0
1.068516 0.149601 0
0.995017 0.138731 0
0.941918 0.121659 0
0.916613 0.084553 0
0.920815 0.043139 0
0.926511 0.019262 0
0.928967 0.006795 0
0.931520 -0.000810 0
0.934858 -0.005782 0
0.938827 -0.008978 0
0.943238 -0.010902 0
0.947934 -0.011929 0
0.952755 -0.012332 0
0.957545 -0.012300 0
0.962173 -0.011959 0
0.966544 -0.011403 0
0.970600 -0.010704 0
0.974313 -0.009917 0
0.977672 -0.009091 0
0.980687 -0.008261 0
0.983374 -0.007449 0
0.985756 -0.006675 0
0.987862 -0.005951 0
0.989716 -0.005281 0
0.991339 -0.004666 0
0.992757 -0.004110 0
0.993998 -0.003612 0
0.995083 -0.003166 0
0.996029 -0.002771 0
0.996852 -0.002423 0
0.997556 -0.002104 0
0.998182 -0.001840 0
0.998719 -0.001601 0
0.999155 -0.001358 0
0.999577 -0.001195 0
0.999975 -0.001091 0
1.000279 -0.000966 0
1.000543 -0.000835 0
1.000768 -0.000718 0
1.000959 -0.000614 0
1.001121 -0.000523 0
1.001259 -0.000444 0
1.001378 -0.000376 0
1.001479 -0.000319 0
1.001566 -0.000271 0
1.001640 -0.000231 0
1.001703 -0.000197 0
1.001756 -0.000168 0
1.001801 -0.000143 0
1.001839 -0.000123 0
1.001872 -0.000105 0
1.001899 -0.000090 0
1.001922 -0.000078 0
1.001941 -0.000067 0
1.001957 -0.000058 0
1.001971 -0.000050 0
1.001982 -0.000043 0
1.001991 -0.000037 0
1.001999 -0.000032 0
1.002005 -0.000028 0
1.002010 -0.000025 0
1.002014 -0.000022 0
1.002017 -0.000019 0
1.002020 -0.000017 0
1.002021 -0.000016 0
1.002023 -0.000015 0
1.002024 -0.000014 0
1.002025 -0.000013 0
1.002026 -0.000014 0
1.002027 -0.000014 0
1.002028 -0.000016 0
1.002029 -0.000018 0
1.002031 -0.000022 0
1.002034 -0.000027 0
1.002038 -0.000035 0
1.002043 -0.000046 0
1.002051 -0.000063 0
1.002061 -0.000087 0
1.002074 -0.000124 0
1.002084 -0.000177 0
1.002091 -0.000254 0
1.002063 -0.000352 0
1.002004 -0.000404 0
1.000000 -0.019849 0
1.006022 -0.061856 0
1.023503 -0.108111 0
1.055996 -0.157055 0
1.105581 -0.207934 0
1.176922 -0.254727 0
1.267677 -0.310948 0
1.450324 -0.319047 0
1.565382 -0.241645 0
1.620140 -0.139981 0
1.638503 -0.038697 0
1.631240 0.058282 0
1.589542 0.143435 0
1.507744 0.206214 0
1.404636 0.241647 0
1.295364 0.256679 0
1.186437 0.263290 0
1.117684 0.255065 0
1.127577 0.243131 0
1.100432 0.215835 0
1.037011 0.152024 0
0.982671 0.071767 0
0.943332 0.019585 0
0.924104 0.007278 0
0.920101 0.001493 0
0.922375 -0.005142 0
0.926985 -0.010359 0
0.932510 -0.013859 0
0.938434 -0.016010 0
0.944490 -0.017155 0
0.950471 -0.017536 0
0.956207 -0.017340 0
0.961574 -0.016724 0
0.966500 -0.015819 0
0.970954 -0.014734 0
0.974934 -0.013554 0
0.978461 -0.012341 0
0.981565 -0.011143 0
0.984283 -0.009997 0
0.986660 -0.008919 0
0.988734 -0.007918 0
0.990536 -0.006999 0
0.992098 -0.006165 0
0.993457 -0.005416 0
0.994635 -0.004748 0
0.995656 -0.004157 0
0.996541 -0.003634 0
0.997297 -0.003161 0
0.997964 -0.002758 0
0.998544 -0.002406 0
0.999003 -0.002058 0
0.999438 -0.001784 0
0.999866 -0.001607 0
1.000206 -0.001429 0
1.000476 -0.001237 0
1.000708 -0.001067 0
1.000906 -0.000916 0
1.001075 -0.000784 0
1.001219 -0.000668 0
1.001343 -0.000569 0
1.001449 -0.000483 0
1.001540 -0.000411 0
1.001617 -0.000350 0
1.001683 -0.000298 0
1.001739 -0.000254 0
1.001787 -0.000217 0
1.001828 -0.000185 0
1.001862 -0.000159 0
1.001891 -0.000136 0
1.001915 -0.000116 0
1.001936 -0.000100 0
1.001953 -0.000086 0
1.001967 -0.000074 0
1.001979 -0.000063 0
1.001989 -0.000055 0
1.001997 -0.000047 0
1.002004 -0.000041 0
1.002009 -0.000035 0
1.002014 -0.000031 0
1.002017 -0.000027 0
1.002020 -0.000024 0
1.002022 -0.000021 0
1.002023 -0.000019 0
1.002024 -0.000018 0
1.002025 -0.000016 0
1.002025 -0.000016 0
1.002026 -0.000016 0
1.002026 -0.000017 0
1.002026 -0.000018 0
1.002026 -0.000021 0
1.002026 -0.000025 0
1.002027 -0.000031 0
1.002028 -0.000040 0
1.002029 -0.000052 0
1.002031 -0.000070 0
1.002032 -0.000094 0
1.002032 -0.000129 0
1.002027 -0.000175 0
1.002012 -0.000235 0
1.001976 -0.000308 0
1.001917 -0.000347 0
1.000000 -0.021656 0
1.002928 -0.071248 0
1.013412 -0.131372 0
1.036642 -0.197784 0
1.082326 -0.270191 0
1.151265 -0.340535 0
1.262451 -0.474856 0
1.580595 -0.498579 0
1.675355 -0.330505 0
1.687252 -0.170125 0
1.681832 -0.039002 0
1.677105 0.084154 0
1.666808 0.210725 0
1.603050 0.314273 0
1.483054 0.371616 0
1.330790 0.391155 0
1.193444 0.347381 0
1.092401 0.218490 0
0.996034 0.166860 0
0.936205 0.229303 0
0.904613 0.239426 0
0.894897 0.178237 0
0.886912 0.101711 0
0.890009 0.042499 0
0.898727 0.008529 0
0.907366 -0.007690 0
0.915585 -0.015914 0
0.923809 -0.020424 0
0.932072 -0.022879 0
0.940157 -0.023963 0
0.947815 -0.024048 0
0.954863 -0.023402 0
0.961208 -0.022251 0
0.966824 -0.020782 0
0.971742 -0.019137 0
0.976014 -0.017424 0
0.979698 -0.015723 0
0.982865 -0.014084 0
0.985583 -0.012546 0
0.987915 -0.011128 0
0.989917 -0.009829 0
0.991636 -0.008648 0
0.993107 -0.007590 0
0.994369 -0.006649 0
0.995457 -0.005814 0
0.996396 -0.005075 0
0.997189 -0.004416 0
0.997883 -0.003849 0
0.998485 -0.003355 0
0.998963 -0.002883 0
0.999405 -0.002499 0
0.999852 -0.002226 0
1.000207 -0.001967 0
1.000478 -0.001705 0
1.000710 -0.001473 0
1.000908 -0.001269 0
1.001076 -0.001089 0
1.001219 -0.000932 0
1.001341 -0.000795 0
1.001446 -0.000678 0
1.001537 -0.000577 0
1.001614 -0.000492 0
1.001680 -0.000419 0
1.001737 -0.000358 0
1.001785 -0.000305 0
1.001826 -0.000260 0
1.001860 -0.000223 0
1.001890 -0.000190 0
1.001915 -0.000163 0
1.001936 -0.000139 0
1.001953 -0.000120 0
1.001968 -0.000103 0
1.001980 -0.000088 0
1.001990 -0.000076 0
1.001998 -0.000065 0
1.002005 -0.000056 0
1.002011 -0.000048 0
1.002015 -0.000042 0
1.002019 -0.000036 0
1.002021 -0.000032 0
1.002023 -0.000028 0
1.002025 -0.000025 0
1.002025 -0.000022 0
1.002026 -0.000020 0
1.002026 -0.000019 0
1.002026 -0.000018 0
1.002025 -0.000018 0
1.002025 -0.000018 0
1.002024 -0.000020 0
1.002023 -0.000022 0
1.002021 -0.000026 0
1.002020 -0.000032 0
1.002018 -0.000041 0
1.002015 -0.000053 0
1.002011 -0.000069 0
1.002005 -0.000092 0
1.001996 -0.000122 0
1.001979 -0.000160 0
1.001953 -0.000206 0
1.001912 -0.000261 0
1.001853 -0.000290 0
1.000000 -0.022771 0
0.999951 -0.075261 0
1.005595 -0.141821 0
1.005210 -0.225964 0
1.038115 -0.322553 0
1.069841 -0.434847 0
1.227080 -0.740272 0
1.602218 -0.731945 0
1.511416 -0.348294 0
1.390985 -0.146450 0
1.347414 -0.028541 0
1.362831 0.073315 0
1.462938 0.217497 0
1.490619 0.389976 0
1.439889 0.513916 0
1.346894 0.546296 0
1.230324 0.501686 0
1.042514 0.452482 0
0.786156 0.399333 0
0.694432 0.307263 0
0.745954 0.193338 0
0.817824 0.089473 0
0.858916 0.024479 0
0.875593 -0.004532 0
0.883602 -0.015860 0
0.892052 -0.021996 0
0.902273 -0.026798 0
0.913508 -0.030343 0
0.924846 -0.032355 0
0.935623 -0.032895 0
0.945436 -0.032241 0
0.954090 -0.030732 0
0.961555 -0.028684 0
0.967908 -0.026353 0
0.973268 -0.023924 0
0.977777 -0.021511 0
0.981555 -0.019193 0
0.984713 -0.017029 0
0.987354 -0.015048 0
0.989572 -0.013256 0
0.991450 -0.011641 0
0.993040 -0.010191 0
0.994378 -0.008900 0
0.995503 -0.007769 0
0.996460 -0.006779 0
0.997299 -0.005891 0
0.997984 -0.005125 0
0.998583 -0.004461 0
0.999086 -0.003842 0
0.999530 -0.003330 0
0.999956 -0.002950 0
1.000306 -0.002590 0
1.000571 -0.002238 0
1.000793 -0.001937 0
1.000981 -0.001671 0
1.001139 -0.001436 0
1.001272 -0.001232 0
1.001385 -0.001054 0
1.001482 -0.000900 0
1.001566 -0.000768 0
1.001638 -0.000656 0
1.001700 -0.000559 0
1.001753 -0.000477 0
1.001799 -0.000407 0
1.001837 -0.000348 0
1.001870 -0.000297 0
1.001899 -0.000254 0
1.001922 -0.000217 0
1.001942 -0.000186 0
1.001959 -0.000159 0
1.001973 -0.000136 0
1.001985 -0.000117 0
1.001995 -0.000100 0
1.002002 -0.000086 0
1.002009 -0.000074 0
1.002014 -0.000064 0
1.002018 -0.000055 0
1.002022 -0.000047 0
1.002024 -0.000041 0
1.002026 -0.000036 0
1.002027 -0.000031 0
1.002028 -0.000027 0
1.002028 -0.000024 0
1.002028 -0.000022 0
1.002027 -0.000020 0
1.002027 -0.000019 0
1.002025 -0.000018 0
1.002024 -0.000019 0
1.002022 -0.000020 0
1.002020 -0.000022 0
1.002017 -0.000026 0
1.002013 -0.000031 0
1.002008 -0.000039 0
1.002002 -0.000049 0
1.001994 -0.000063 0
1.001982 -0.000082 0
1.001965 -0.000106 0
1.001942 -0.000136 0
1.001909 -0.000171 0
1.001864 -0.000211 0
1.001805 -0.000232 0
1.000000 -0.021601 0
0.995438 -0.076836 0
0.997964 -0.136629 0
0.984227 -0.230301 0
0.977963 -0.334818 0
0.955624 -0.529495 0
1.103913 -1.007228 0
0.772866 -0.663644 0
0.000450 0.000000 0
-0.001184 0.000000 0
0.511202 -0.004725 0
0.514582 -0.031362 0
0.751801 0.082946 0
0.987088 0.337330 0
1.084964 0.515348 0
1.105860 0.600727 0
1.051950 0.651769 0
0.949157 0.662665 0
0.886123 0.514947 0
0.877647 0.269511 0
0.885049 0.116040 0
0.879080 0.065281 0
0.864095 0.043947 0
0.854785 0.017818 0
0.857081 -0.007926 0
0.868456 -0.026357 0
0.884262 -0.037366 0
0.901147 -0.042995 0
0.917269 -0.044991 0
0.931750 -0.044551 0
0.944251 -0.042513 0
0.954709 -0.039519 0
0.963285 -0.036068 0
0.970258 -0.032495 0
0.975903 -0.029005 0
0.980492 -0.025711 0
0.984216 -0.022660 0
0.987232 -0.019884 0
0.989676 -0.017406 0
0.991682 -0.015226 0
0.993353 -0.013299 0
0.994753 -0.011578 0
0.995940 -0.010055 0
0.996856 -0.008735 0
0.997641 -0.007614 0
0.998375 -0.006603 0
0.998905 -0.005704 0
0.999413 -0.004954 0
0.999844 -0.004305 0
1.000237 -0.003757 0
1.000550 -0.003279 0
1.000778 -0.002845 0
1.000976 -0.002458 0
1.001139 -0.002120 0
1.001274 -0.001822 0
1.001387 -0.001563 0
1.001482 -0.001340 0
1.001564 -0.001147 0
1.001635 -0.000981 0
1.001696 -0.000838 0
1.001749 -0.000716 0
1.001794 -0.000612 0
1.001834 -0.000522 0
1.001867 -0.000446 0
1.001896 -0.000381 0
1.001920 -0.000326 0
1.001941 -0.000279 0
1.001959 -0.000238 0
1.001973 -0.000204 0
1.001985 -0.000175 0
1.001996 -0.000149 0
1.002004 -0.000128 0
1.002011 -0.000110 0
1.002016 -0.000094 0
1.002021 -0.000081 0
1.002024 -0.000069 0
1.002027 -0.000060 0
1.002029 -0.000052 0
1.002030 -0.000045 0
1.002031 -0.000039 0
1.002031 -0.000034 0
1.002031 -0.000029 0
1.002031 -0.000026 0
1.002030 -0.000023 0
1.002029 -0.000021 0
1.002028 -0.000019 0
1.002026 -0.000019 0
1.002024 -0.000018 0
1.002021 -0.000019 0
1.002017 -0.000020 0
1.002013 -0.000023 0
1.002008 -0.000027 0
1.002001 -0.000033 0
1.001991 -0.000042 0
1.001979 -0.000053 0
1.001963 -0.000067 0
1.001942 -0.000085 0
1.001914 -0.000107 0
1.001877 -0.000132 0
1.001829 -0.000160 0
1.001770 -0.000175 0
1.000000 -0.018204 0
0.999178 -0.073219 0
0.972993 -0.130608 0
0.980892 -0.205961 0
0.906336 -0.293947 0
0.901005 -0.560793 0
0.617342 -0.676776 0
0.000000 -0.001165 0
-0.651083 0.278397 0
-0.545025 0.000000 0
0.000000 0.000000 0
-0.011562 -0.174115 0
-0.031458 -0.255001 0
0.331739 0.056821 0
0.528271 0.395151 0
0.666913 0.579317 0
0.714259 0.658395 0
0.752138 0.618315 0
0.805169 0.470851 0
0.800730 0.308342 0
0.754165 0.191910 0
0.725697 0.110433 0
0.734561 0.048778 0
0.763588 0.002486 0
0.797859 -0.029527 0
0.831248 -0.049173 0
0.861714 -0.059485 0
0.888519 -0.063346 0
0.911403 -0.062956 0
0.930412 -0.059875 0
0.945825 -0.055198 0
0.957948 -0.049765 0
0.967265 -0.044232 0
0.974482 -0.038970 0
0.980046 -0.034158 0
0.984407 -0.029825 0
0.987870 -0.025934 0
0.990523 -0.022489 0
0.992600 -0.019500 0
0.994288 -0.016935 0
0.995591 -0.014714 0
0.996825 -0.012781 0
0.997754 -0.011006 0
0.998409 -0.009473 0
0.999079 -0.008301 0
0.999605 -0.007158 0
1.000036 -0.006166 0
1.000401 -0.005404 0
1.000705 -0.004669 0
1.000951 -0.004039 0
1.001136 -0.003496 0
1.001280 -0.003020 0
1.001398 -0.002603 0
1.001493 -0.002239 0
1.001574 -0.001923 0
1.001642 -0.001649 0
1.001701 -0.001414 0
1.001752 -0.001211 0
1.001796 -0.001036 0
1.001834 -0.000887 0
1.001867 -0.000758 0
1.001895 -0.000648 0
1.001920 -0.000554 0
1.001941 -0.000474 0
1.001959 -0.000405 0
1.001974 -0.000347 0
1.001987 -0.000296 0
1.001998 -0.000253 0
1.002007 -0.000217 0
1.002014 -0.000186 0
1.002020 -0.000159 0
1.002025 -0.000136 0
1.002028 -0.000117 0
1.002031 -0.000100 0
1.002034 -0.000086 0
1.002035 -0.000074 0
1.002036 -0.000063 0
1.002037 -0.000055 0
1.002037 -0.000047 0
1.002037 -0.000041 0
1.002036 -0.000035 0
1.002035 -0.000031 0
1.002034 -0.000027 0
1.002033 -0.000024 0
1.002031 -0.000021 0
1.002029 -0.000019 0
1.002027 -0.000018 0
1.002024 -0.000017 0
1.002020 -0.000017 0
1.002016 -0.000018 0
1.002010 -0.000019 0
1.002004 -0.000022 0
1.001995 -0.000026 0
1.001984 -0.000031 0
1.001969 -0.000039 0
1.001950 -0.000048 0
1.001926 -0.000060 0
1.001894 -0.000074 0
1.001855 -0.000090 0
1.001806 -0.000108 0
1.001747 -0.000117 0
1.000000 -0.020775 0
0.991713 -0.049823 0
0.973659 -0.118341 0
0.946593 -0.163641 0
0.892043 -0.254928 0
0.815328 -0.240498 0
0.458195 -0.204472 0
0.328254 -0.144554 0
0.000000 0.000000 0
0.000000 0.000000 0
0.000000 0.000000 0
0.000000 0.000000 0
-0.167376 -0.253610 0
-0.239253 -0.222391 0
0.072696 0.180180 0
0.225003 0.414745 0
0.363738 0.566550 0
0.464002 0.571762 0
0.506353 0.466361 0
0.505094 0.320521 0
0.510087 0.191079 0
0.550942 0.084890 0
0.614300 0.006062 0
0.681459 -0.045477 0
0.744594 -0.075582 0
0.799421 -0.090208 0
0.845012 -0.094634 0
0.882106 -0.092680 0
0.911648 -0.086881 0
0.934751 -0.078971 0
0.952402 -0.070047 0
0.965431 -0.060958 0
0.974473 -0.052602 0
0.981173 -0.045276 0
0.986046 -0.038930 0
0.989676 -0.033535 0
0.992625 -0.028777 0
0.994750 -0.024614 0
0.996043 -0.021173 0
0.997317 -0.018219 0
0.998405 -0.015838 0
0.999225 -0.013743 0
0.999807 -0.011641 0
1.000311 -0.010062 0
1.000718 -0.008813 0
1.000969 -0.007564 0
1.001259 -0.006503 0
1.001417 -0.005627 0