# vtk DataFile Version 2.0
generated by CFD-lab course output (written by Tobias Neckel) 
ASCII

DATASET STRUCTURED_GRID
DIMENSIONS  101 21 1 
POINTS 2121 float

0.000000 0.000000 0
0.100000 0.000000 0
0.200000 0.000000 0
0.300000 0.000000 0
0.400000 0.000000 0
0.500000 0.000000 0
0.600000 0.000000 0
0.700000 0.000000 0
0.800000 0.000000 0
0.900000 0.000000 0
1.000000 0.000000 0
1.100000 0.000000 0
1.200000 0.000000 0
1.300000 0.000000 0
1.400000 0.000000 0
1.500000 0.000000 0
1.600000 0.000000 0
1.700000 0.000000 0
1.800000 0.000000 0
1.900000 0.000000 0
2.000000 0.000000 0
2.100000 0.000000 0
2.200000 0.000000 0
2.300000 0.000000 0
2.400000 0.000000 0
2.500000 0.000000 0
2.600000 0.000000 0
2.700000 0.000000 0
2.800000 0.000000 0
2.900000 0.000000 0
3.000000 0.000000 0
3.100000 0.000000 0
3.200000 0.000000 0
3.300000 0.000000 0
3.400000 0.000000 0
3.500000 0.000000 0
3.600000 0.000000 0
3.700000 0.000000 0
3.800000 0.000000 0
3.900000 0.000000 0
4.000000 0.000000 0
4.100000 0.000000 0
4.200000 0.000000 0
4.300000 0.000000 0
4.400000 0.000000 0
4.500000 0.000000 0
4.600000 0.000000 0
4.700000 0.000000 0
4.800000 0.000000 0
4.900000 0.000000 0
5.000000 0.000000 0
5.100000 0.000000 0
5.200000 0.000000 0
5.300000 0.000000 0
5.400000 0.000000 0
5.500000 0.000000 0
5.600000 0.000000 0
5.700000 0.000000 0
5.800000 0.000000 0
5.900000 0.000000 0
6.000000 0.000000 0
6.100000 0.000000 0
6.200000 0.000000 0
6.300000 0.000000 0
6.400000 0.000000 0
6.500000 0.000000 0
6.600000 0.000000 0
6.700000 0.000000 0
6.800000 0.000000 0
6.900000 0.000000 0
7.000000 0.000000 0
7.100000 0.000000 0
7.200000 0.000000 0
7.300000 0.000000 0
7.400000 0.000000 0
7.500000 0.000000 0
7.600000 0.000000 0
7.700000 0.000000 0
7.800000 0.000000 0
7.900000 0.000000 0
8.000000 0.000000 0
8.100000 0.000000 0
8.200000 0.000000 0
8.300000 0.000000 0
8.400000 0.000000 0
8.500000 0.000000 0
8.600000 0.000000 0
8.700000 0.000000 0
8.800000 0.000000 0
8.900000 0.000000 0
9.000000 0.000000 0
9.100000 0.000000 0
9.200000 0.000000 0
9.300000 0.000000 0
9.400000 0.000000 0
9.500000 0.000000 0
9.600000 0.000000 0
9.700000 0.000000 0
9.800000 0.000000 0
9.900000 0.000000 0
10.000000 0.000000 0
0.000000 0.100000 0
0.100000 0.100000 0
0.200000 0.100000 0
0.300000 0.100000 0
0.400000 0.100000 0
0.500000 0.100000 0
0.600000 0.100000 0
0.700000 0.100000 0
0.800000 0.100000 0
0.900000 0.100000 0
1.000000 0.100000 0
1.100000 0.100000 0
1.200000 0.100000 0
1.300000 0.100000 0
1.400000 0.100000 0
1.500000 0.100000 0
1.600000 0.100000 0
1.700000 0.100000 0
1.800000 0.100000 0
1.900000 0.100000 0
2.000000 0.100000 0
2.100000 0.100000 0
2.200000 0.100000 0
2.300000 0.100000 0
2.400000 0.100000 0
2.500000 0.100000 0
2.600000 0.100000 0
2.700000 0.100000 0
2.800000 0.100000 0
2.900000 0.100000 0
3.000000 0.100000 0
3.100000 0.100000 0
3.200000 0.100000 0
3.300000 0.100000 0
3.400000 0.100000 0
3.500000 0.100000 0
3.600000 0.100000 0
3.700000 0.100000 0
3.800000 0.100000 0
3.900000 0.100000 0
4.000000 0.100000 0
4.100000 0.100000 0
4.200000 0.100000 0
4.300000 0.100000 0
4.400000 0.100000 0
4.500000 0.100000 0
4.600000 0.100000 0
4.700000 0.100000 0
4.800000 0.100000 0
4.900000 0.100000 0
5.000000 0.100000 0
5.100000 0.100000 0
5.200000 0.100000 0
5.300000 0.100000 0
5.400000 0.100000 0
5.500000 0.100000 0
5.600000 0.100000 0
5.700000 0.100000 0
5.800000 0.100000 0
5.900000 0.100000 0
6.000000 0.100000 0
6.100000 0.100000 0
6.200000 0.100000 0
6.300000 0.100000 0
6.400000 0.100000 0
6.500000 0.100000 0
6.600000 0.100000 0
6.700000 0.100000 0
6.800000 0.100000 0
6.900000 0.100000 0
7.000000 0.100000 0
7.100000 0.100000 0
7.200000 0.100000 0
7.300000 0.100000 0
7.400000 0.100000 0
7.500000 0.100000 0
7.600000 0.100000 0
7.700000 0.100000 0
7.800000 0.100000 0
7.900000 0.100000 0
8.000000 0.100000 0
8.100000 0.100000 0
8.200000 0.100000 0
8.300000 0.100000 0
8.400000 0.100000 0
8.500000 0.100000 0
8.600000 0.100000 0
8.700000 0.100000 0
8.800000 0.100000 0
8.900000 0.100000 0
9.000000 0.100000 0
9.100000 0.100000 0
9.200000 0.100000 0
9.300000 0.100000 0
9.400000 0.100000 0
9.500000 0.100000 0
9.600000 0.100000 0
9.700000 0.100000 0
9.800000 0.100000 0
9.900000 0.100000 0
10.000000 0.100000 0
0.000000 0.200000 0
0.100000 0.200000 0
0.200000 0.200000 0
0.300000 0.200000 0
0.400000 0.200000 0
0.500000 0.200000 0
0.600000 0.200000 0
0.700000 0.200000 0
0.800000 0.200000 0
0.900000 0.200000 0
1.000000 0.200000 0
1.100000 0.200000 0
1.200000 0.200000 0
1.300000 0.200000 0
1.400000 0.200000 0
1.500000 0.200000 0
1.600000 0.200000 0
1.700000 0.200000 0
1.800000 0.200000 0
1.900000 0.200000 0
2.000000 0.200000 0
2.100000 0.200000 0
2.200000 0.200000 0
2.300000 0.200000 0
2.400000 0.200000 0
2.500000 0.200000 0
2.600000 0.200000 0
2.700000 0.200000 0
2.800000 0.200000 0
2.900000 0.200000 0
3.000000 0.200000 0
3.100000 0.200000 0
3.200000 0.200000 0
3.300000 0.200000 0
3.400000 0.200000 0
3.500000 0.200000 0
3.600000 0.200000 0
3.700000 0.200000 0
3.800000 0.200000 0
3.900000 0.200000 0
4.000000 0.200000 0
4.100000 0.200000 0
4.200000 0.200000 0
4.300000 0.200000 0
4.400000 0.200000 0
4.500000 0.200000 0
4.600000 0.200000 0
4.700000 0.200000 0
4.800000 0.200000 0
4.900000 0.200000 0
5.000000 0.200000 0
5.100000 0.200000 0
5.200000 0.200000 0
5.300000 0.200000 0
5.400000 0.200000 0
5.500000 0.200000 0
5.600000 0.200000 0
5.700000 0.200000 0
5.800000 0.200000 0
5.900000 0.200000 0
6.000000 0.200000 0
6.100000 0.200000 0
6.200000 0.200000 0
6.300000 0.200000 0
6.400000 0.200000 0
6.500000 0.200000 0
6.600000 0.200000 0
6.700000 0.200000 0
6.800000 0.200000 0
6.900000 0.200000 0
7.000000 0.200000 0
7.100000 0.200000 0
7.200000 0.200000 0
7.300000 0.200000 0
7.400000 0.200000 0
7.500000 0.200000 0
7.600000 0.200000 0
7.700000 0.200000 0
7.800000 0.200000 0
7.900000 0.200000 0
8.000000 0.200000 0
8.100000 0.200000 0
8.200000 0.200000 0
8.300000 0.200000 0
8.400000 0.200000 0
8.500000 0.200000 0
8.600000 0.200000 0
8.700000 0.200000 0
8.800000 0.200000 0
8.900000 0.200000 0
9.000000 0.200000 0
9.100000 0.200000 0
9.200000 0.200000 0
9.300000 0.200000 0
9.400000 0.200000 0
9.500000 0.200000 0
9.600000 0.200000 0
9.700000 0.200000 0
9.800000 0.200000 0
9.900000 0.200000 0
10.000000 0.200000 0
0.000000 0.300000 0
0.100000 0.300000 0
0.200000 0.300000 0
0.300000 0.300000 0
0.400000 0.300000 0
0.500000 0.300000 0
0.600000 0.300000 0
0.700000 0.300000 0
0.800000 0.300000 0
0.900000 0.300000 0
1.000000 0.300000 0
1.100000 0.300000 0
1.200000 0.300000 0
1.300000 0.300000 0
1.400000 0.300000 0
1.500000 0.300000 0
1.600000 0.300000 0
1.700000 0.300000 0
1.800000 0.300000 0
1.900000 0.300000 0
2.000000 0.300000 0
2.100000 0.300000 0
2.200000 0.300000 0
2.300000 0.300000 0
2.400000 0.300000 0
2.500000 0.300000 0
2.600000 0.300000 0
2.700000 0.300000 0
2.800000 0.300000 0
2.900000 0.300000 0
3.000000 0.300000 0
3.100000 0.300000 0
3.200000 0.300000 0
3.300000 0.300000 0
3.400000 0.300000 0
3.500000 0.300000 0
3.600000 0.300000 0
3.700000 0.300000 0
3.800000 0.300000 0
3.900000 0.300000 0
4.000000 0.300000 0
4.100000 0.300000 0
4.200000 0.300000 0
4.300000 0.300000 0
4.400000 0.300000 0
4.500000 0.300000 0
4.600000 0.300000 0
4.700000 0.300000 0
4.800000 0.300000 0
4.900000 0.300000 0
5.000000 0.300000 0
5.100000 0.300000 0
5.200000 0.300000 0
5.300000 0.300000 0
5.400000 0.300000 0
5.500000 0.300000 0
5.600000 0.300000 0
5.700000 0.300000 0
5.800000 0.300000 0
5.900000 0.300000 0
6.000000 0.300000 0
6.100000 0.300000 0
6.200000 0.300000 0
6.300000 0.300000 0
6.400000 0.300000 0
6.500000 0.300000 0
6.600000 0.300000 0
6.700000 0.300000 0
6.800000 0.300000 0
6.900000 0.300000 0
7.000000 0.300000 0
7.100000 0.300000 0
7.200000 0.300000 0
7.300000 0.300000 0
7.400000 0.300000 0
7.500000 0.300000 0
7.600000 0.300000 0
7.700000 0.300000 0
7.800000 0.300000 0
7.900000 0.300000 0
8.000000 0.300000 0
8.100000 0.300000 0
8.200000 0.300000 0
8.300000 0.300000 0
8.400000 0.300000 0
8.500000 0.300000 0
8.600000 0.300000 0
8.700000 0.300000 0
8.800000 0.300000 0
8.900000 0.300000 0
9.000000 0.300000 0
9.100000 0.300000 0
9.200000 0.300000 0
9.300000 0.300000 0
9.400000 0.300000 0
9.500000 0.300000 0
9.600000 0.300000 0
9.700000 0.300000 0
9.800000 0.300000 0
9.900000 0.300000 0
10.000000 0.300000 0
0.000000 0.400000 0
0.100000 0.400000 0
0.200000 0.400000 0
0.300000 0.400000 0
0.400000 0.400000 0
0.500000 0.400000 0
0.600000 0.400000 0
0.700000 0.400000 0
0.800000 0.400000 0
0.900000 0.400000 0
1.000000 0.400000 0
1.100000 0.400000 0
1.200000 0.400000 0
1.300000 0.400000 0
1.400000 0.400000 0
1.500000 0.400000 0
1.600000 0.400000 0
1.700000 0.400000 0
1.800000 0.400000 0
1.900000 0.400000 0
2.000000 0.400000 0
2.100000 0.400000 0
2.200000 0.400000 0
2.300000 0.400000 0
2.400000 0.400000 0
2.500000 0.400000 0
2.600000 0.400000 0
2.700000 0.400000 0
2.800000 0.400000 0
2.900000 0.400000 0
3.000000 0.400000 0
3.100000 0.400000 0
3.200000 0.400000 0
3.300000 0.400000 0
3.400000 0.400000 0
3.500000 0.400000 0
3.600000 0.400000 0
3.700000 0.400000 0
3.800000 0.400000 0
3.900000 0.400000 0
4.000000 0.400000 0
4.100000 0.400000 0
4.200000 0.400000 0
4.300000 0.400000 0
4.400000 0.400000 0
4.500000 0.400000 0
4.600000 0.400000 0
4.700000 0.400000 0
4.800000 0.400000 0
4.900000 0.400000 0
5.000000 0.400000 0
5.100000 0.400000 0
5.200000 0.400000 0
5.300000 0.400000 0
5.400000 0.400000 0
5.500000 0.400000 0
5.600000 0.400000 0
5.700000 0.400000 0
5.800000 0.400000 0
5.900000 0.400000 0
6.000000 0.400000 0
6.100000 0.400000 0
6.200000 0.400000 0
6.300000 0.400000 0
6.400000 0.400000 0
6.500000 0.400000 0
6.600000 0.400000 0
6.700000 0.400000 0
6.800000 0.400000 0
6.900000 0.400000 0
7.000000 0.400000 0
7.100000 0.400000 0
7.200000 0.400000 0
7.300000 0.400000 0
7.400000 0.400000 0
7.500000 0.400000 0
7.600000 0.400000 0
7.700000 0.400000 0
7.800000 0.400000 0
7.900000 0.400000 0
8.000000 0.400000 0
8.100000 0.400000 0
8.200000 0.400000 0
8.300000 0.400000 0
8.400000 0.400000 0
8.500000 0.400000 0
8.600000 0.400000 0
[...]
POINT_DATA 2121 

VECTORS velocity float
0.500000 0.000000 0
0.000034 0.000000 0
0.000091 0.000000 0
0.000149 0.000000 0
0.000205 0.000000 0
0.000256 0.000000 0
0.000298 0.000000 0
0.000314 0.000000 0
0.000274 0.000000 0
0.000138 0.000000 0
-0.000136 0.000000 0
-0.000571 0.000000 0
-0.001170 0.000000 0
-0.001918 0.000000 0
-0.002789 0.000000 0
-0.003708 0.000000 0
-0.004457 0.000000 0
-0.004678 0.000000 0
-0.004071 0.000000 0
-0.002522 0.000000 0
-0.000456 0.000000 0
0.001586 0.000000 0
0.003435 0.000000 0
0.005122 0.000000 0
0.005739 0.000000 0
0.004410 0.000000 0
0.020922 0.000000 0
0.030508 0.000000 0
0.013762 0.000000 0
-0.004130 0.000000 0
-0.007623 0.000000 0
0.001124 0.000000 0
0.002761 0.000000 0
0.001825 0.000000 0
-0.001080 0.000000 0
-0.006527 0.000000 0
-0.013430 0.000000 0
-0.019558 0.000000 0
-0.021033 0.000000 0
-0.016903 0.000000 0
-0.012805 0.000000 0
-0.017269 0.000000 0
-0.018332 0.000000 0
-0.018732 0.000000 0
-0.018465 0.000000 0
-0.017437 0.000000 0
-0.015445 0.000000 0
-0.012516 0.000000 0
-0.008749 0.000000 0
-0.004763 0.000000 0
-0.001171 0.000000 0
0.002955 0.000000 0
0.008723 0.000000 0
0.015648 0.000000 0
0.021567 0.000000 0
0.024518 0.000000 0
0.023264 0.000000 0
0.018558 0.000000 0
0.012634 0.000000 0
0.007848 0.000000 0
0.007064 0.000000 0
0.002105 0.000000 0
-0.000912 0.000000 0
0.012635 0.000000 0
0.019852 0.000000 0
0.016096 0.000000 0
0.006911 0.000000 0
-0.001329 0.000000 0
-0.008198 0.000000 0
-0.006548 0.000000 0
-0.007297 0.000000 0
-0.005518 0.000000 0
-0.002939 0.000000 0
-0.001130 0.000000 0
0.000477 0.000000 0
0.002121 0.000000 0
0.003243 0.000000 0
0.004134 0.000000 0
0.004866 0.000000 0
0.004761 0.000000 0
0.003227 0.000000 0
0.000673 0.000000 0
-0.002079 0.000000 0
-0.004540 0.000000 0
-0.006407 0.000000 0
-0.007670 0.000000 0
-0.008506 0.000000 0
-0.009003 0.000000 0
-0.009173 0.000000 0
-0.009030 0.000000 0
-0.008703 0.000000 0
-0.008386 0.000000 0
-0.008296 0.000000 0
-0.007858 0.000000 0
-0.007671 0.000000 0
-0.007683 0.000000 0
-0.008042 0.000000 0
-0.008489 0.000000 0
-0.008894 0.000000 0
-0.009189 0.000000 0
-0.009167 0.000000 0
1.000000 -0.003295 0
1.007212 -0.010232 0
1.021888 -0.017724 0
1.044447 -0.025459 0
1.075190 -0.032825 0
1.113587 -0.038664 0
1.157556 -0.041368 0
1.203107 -0.039169 0
1.242961 -0.031808 0
1.271825 -0.021324 0
1.288093 -0.010439 0
1.293113 -0.001346 0
1.289951 0.004612 0
1.282393 0.006704 0
1.274514 0.004372 0
1.271466 -0.002492 0
1.279002 -0.012101 0
1.299571 -0.019927 0
1.328376 -0.020299 0
1.352837 -0.010176 0
1.359444 0.008071 0
1.342980 0.029234 0
1.303872 0.050206 0
1.244555 0.068647 0
1.170367 0.070121 0
1.085163 0.102217 0
0.948852 0.305749 0
0.722786 0.434858 0
0.557644 0.247945 0
0.569848 -0.025767 0
0.477976 -0.124532 0
0.322304 -0.063719 0
0.251371 -0.017132 0
0.220246 -0.001334 0
0.192307 -0.005171 0
0.191489 -0.044653 0
0.252540 -0.109782 0
0.377429 -0.172018 0
0.558463 -0.191800 0
0.762956 -0.160947 0
0.939915 -0.131072 0
1.078571 -0.134286 0
1.215750 -0.142537 0
1.347565 -0.137803 0
1.469954 -0.129174 0
1.586684 -0.118503 0
1.695186 -0.103459 0
1.787342 -0.082488 0
1.854529 -0.056701 0
1.894657 -0.030393 0
1.910900 -0.005814 0
1.905517 0.021292 0
1.875176 0.056703 0
1.813810 0.099095 0
1.719948 0.138215 0
1.600476 0.161890 0
1.468499 0.162252 0
1.341144 0.140394 0
1.230541 0.106945 0
1.140501 0.082215 0
1.068639 0.065885 0
1.015468 0.022704 0
0.972602 0.028447 0
0.908741 0.157274 0
0.811855 0.262476 0
0.700349 0.228409 0
0.622020 0.110435 0
0.599041 -0.016675 0
0.593473 -0.091939 0
0.548363 -0.103903 0
0.535844 -0.101017 0
0.596580 -0.084506 0
0.628133 -0.050212 0
0.629164 -0.021459 0
0.613512 0.002175 0
0.579244 0.021184 0
0.533012 0.032966 0
0.481566 0.043838 0
0.419224 0.058843 0
0.349943 0.069099 0
0.290935 0.062538 0
0.257405 0.038397 0
0.255437 0.004822 0
0.283594 -0.028379 0
0.334899 -0.053059 0
0.400372 -0.067836 0
0.473124 -0.076209 0
0.549775 -0.080127 0
0.627864 -0.079425 0
0.705716 -0.075701 0
0.780929 -0.070098 0
0.853184 -0.064822 0
0.920369 -0.061533 0
0.980413 -0.055370 0
1.030444 -0.047579 0
1.074687 -0.042441 0
1.114728 -0.038502 0
1.151150 -0.034605 0
1.183357 -0.030079 0
1.210756 -0.023023 0
1.228716 -0.018366 0
1.000000 -0.007194 0
1.007419 -0.021863 0
1.022518 -0.037221 0
1.045863 -0.053287 0
1.078672 -0.069125 0
1.121386 -0.082352 0
1.172505 -0.089505 0
1.229438 -0.085390 0
1.278107 -0.068703 0
1.310758 -0.045117 0
1.326642 -0.021273 0
1.328787 -0.001844 0
1.321675 0.010734 0
1.309693 0.015451 0
1.296081 0.010941 0
1.286891 -0.004475 0
1.293271 -0.028094 0
1.322686 -0.049363 0
1.369888 -0.053256 0
1.414474 -0.031058 0
1.431099 0.009867 0
1.416349 0.055580 0
1.375877 0.098433 0
1.315131 0.133513 0
1.237211 0.159399 0
1.128282 0.221521 0
1.019116 0.362383 0
1.041932 0.391214 0
1.064173 0.152942 0
0.955005 0.079672 0
0.707774 0.247546 0
0.531343 0.226606 0
0.425588 0.102059 0
0.302049 0.059064 0
0.223876 0.028755 0
0.220812 -0.060236 0
0.283730 -0.185943 0
0.364702 -0.305927 0
0.472313 -0.385533 0
0.637425 -0.381458 0
0.836942 -0.315623 0
1.003362 -0.275844 0
1.131624 -0.269002 0
1.239467 -0.254213 0
1.325472 -0.239129 0
1.407260 -0.225242 0
1.494598 -0.200668 0
1.576445 -0.159352 0
1.637679 -0.107325 0
1.671824 -0.056380 0
1.678954 -0.010869 0
1.665442 0.035715 0
1.637531 0.091699 0
1.598376 0.155220 0
1.548776 0.213327 0
1.490118 0.251444 0
1.424445 0.259328 0
1.353920 0.237954 0
1.281473 0.200639 0
1.210348 0.161900 0
1.151857 0.125032 0
1.102597 0.096037 0
1.033004 0.106728 0
1.005366 0.160749 0
1.062670 0.208395 0
1.134671 0.189838 0
1.168990 0.101312 0
1.148971 0.028552 0
1.068089 0.050684 0
0.964360 0.057635 0
0.866788 -0.048211 0
0.715366 -0.092283 0
0.596084 -0.032578 0
0.548527 0.014627 0
0.513181 0.049926 0
0.467381 0.080506 0
0.421515 0.097682 0
0.374507 0.113792 0
0.321000 0.131626 0
0.276507 0.128291 0
0.259326 0.092540 0
0.274484 0.035499 0
0.316076 -0.026189 0
0.367626 -0.079464 0
0.424494 -0.116781 0
0.486841 -0.138229 0
0.554056 -0.149407 0
0.622138 -0.154745 0
0.690030 -0.155947 0
0.758031 -0.153072 0
0.826227 -0.147476 0
0.892142 -0.139449 0
0.951363 -0.127238 0
1.001375 -0.110085 0
1.047099 -0.094285 0
1.088554 -0.084294 0
1.126552 -0.076474 0
1.161419 -0.068640 0
1.192290 -0.059616 0
1.217774 -0.045370 0
1.234624 -0.035872 0
1.000000 -0.010704 0
1.006238 -0.032738 0
1.020223 -0.056165 0
1.042278 -0.081609 0
1.076004 -0.108344 0
1.123644 -0.132493 0
1.184627 -0.149416 0
1.266810 -0.144767 0
1.331470 -0.113123 0
1.368118 -0.069853 0
1.380118 -0.028464 0
1.374425 0.003625 0
1.358453 0.023711 0
1.338291 0.032303 0
1.312389 0.027179 0
1.285079 0.000322 0
1.282300 -0.047893 0
1.325285 -0.096540 0
1.399619 -0.112082 0
1.474709 -0.071384 0
1.516251 0.006199 0
1.507369 0.084459 0
1.455762 0.151428 0
1.383663 0.207316 0
1.304308 0.256972 0
1.216967 0.320314 0
1.151762 0.392102 0
1.155434 0.389804 0
1.108450 0.334874 0
0.903955 0.330632 0
0.820963 0.299130 0
0.799712 0.218468 0
0.633838 0.212162 0
0.440184 0.200378 0
0.381058 0.076065 0
0.433835 -0.104509 0
0.518070 -0.253673 0
0.592465 -0.360604 0
0.633663 -0.464526 0
0.684502 -0.525578 0
0.799808 -0.497011 0
0.949809 -0.428972 0
1.063696 -0.378645 0
1.151297 -0.331656 0
1.189195 -0.296972 0
1.210650 -0.287632 0
1.253022 -0.272648 0
1.306450 -0.225573 0
1.349870 -0.152083 0
1.378701 -0.071671 0
1.380762 0.000565 0
1.358885 0.062712 0
1.330925 0.123767 0
1.311274 0.187848 0
1.299736 0.246471 0
1.294034 0.286219 0
1.285895 0.298449 0
1.263099 0.283364 0
1.219768 0.250517 0
1.161547 0.211831 0
1.101360 0.173636 0
1.054530 0.141558 0
1.033237 0.125678 0
1.060954 0.127609 0
1.138692 0.133173 0
1.236222 0.122091 0
1.296131 0.096138 0
1.286629 0.084228 0
1.237733 0.092675 0
1.204953 0.097401 0
1.115695 0.147980 0
0.925200 0.186200 0
0.761875 0.116629 0
0.640457 0.061446 0
0.578103 0.083323 0
0.531353 0.112852 0
0.485299 0.125841 0
0.437991 0.144354 0
0.404925 0.156844 0
0.399918 0.130773 0
0.420322 0.064562 0
0.456101 -0.018353 0
0.501509 -0.088320 0
0.550259 -0.136797 0
0.596092 -0.172274 0
0.639742 -0.197400 0
0.686820 -0.211508 0
0.740177 -0.216102 0
0.797544 -0.215319 0
0.854586 -0.211901 0
0.908782 -0.204212 0
0.954010 -0.189960 0
0.990254 -0.170769 0
1.026916 -0.151109 0
1.065833 -0.134760 0
1.102200 -0.121897 0
1.137159 -0.111370 0
1.171581 -0.100346 0
1.204121 -0.086437 0
1.230575 -0.065361 0
1.247537 -0.051909 0
1.000000 -0.013423 0
1.003482 -0.042077 0
1.015980 -0.073259 0
1.033186 -0.109065 0
1.065968 -0.150489 0
1.117426 -0.190972 0
1.189126 -0.232667 0
1.331986 -0.232229 0
1.418864 -0.170006 0
1.454321 -0.093760 0
1.455899 -0.027575 0
1.435715 0.019826 0
1.405587 0.046872 0
1.378268 0.061519 0
1.334467 0.064157 0
1.262095 0.025618 0
1.222119 -0.068296 0
1.276422 -0.166678 0
1.366213 -0.202676 0
1.478812 -0.147687 0
1.570528 -0.022789 0
1.598513 0.116073 0
1.564664 0.222142 0
1.485481 0.284970 0
1.383607 0.326098 0
1.284409 0.374070 0
1.218921 0.423919 0
1.192446 0.434527 0
1.139035 0.404422 0
1.034032 0.367160 0
0.928978 0.351791 0
0.791407 0.413732 0
0.591216 0.461586 0
0.487782 0.311844 0
0.489957 0.035104 0
0.528484 -0.197250 0
0.541478 -0.344575 0
0.573746 -0.421522 0
0.634543 -0.477573 0
0.695845 -0.547606 0
0.765611 -0.580933 0
0.865361 -0.539736 0
0.975003 -0.470494 0
1.068550 -0.379717 0
1.080736 -0.298486 0
1.008258 -0.289072 0
0.973727 -0.296472 0
0.986308 -0.256205 0
0.996849 -0.179579 0
1.007903 -0.087275 0
1.029554 0.008943 0
1.060686 0.085549 0
1.087822 0.139308 0
1.109336 0.186407 0
1.140707 0.230566 0
1.186623 0.265283 0
1.229292 0.290262 0
1.251364 0.304080 0
1.241929 0.302191 0
1.190368 0.280309 0
1.122667 0.232049 0
1.093609 0.164159 0
1.087834 0.100305 0
1.105552 0.055295 0
1.167371 0.033129 0
1.254678 0.032402 0
1.321966 0.050906 0
1.342418 0.086952 0
1.325348 0.132362 0
1.278727 0.179676 0
1.201691 0.231544 0
1.154663 0.261538 0
1.080369 0.252168 0
0.957251 0.198401 0
0.831055 0.159032 0
0.729062 0.173311 0
0.649528 0.191046 0
0.597968 0.194167 0
0.578145 0.169700 0
0.580886 0.112895 0
0.594846 0.036357 0
0.612804 -0.045688 0
0.630643 -0.120347 0
0.653615 -0.174047 0
0.683251 -0.206264 0
0.715591 -0.228958 0
0.744380 -0.249843 0
0.771140 -0.265470 0
0.801347 -0.270358 0
0.840658 -0.264312 0
0.891836 -0.246902 0
0.943002 -0.220924 0
0.987431 -0.200146 0
1.023563 -0.185666 0
1.051350 -0.169571 0
1.076844 -0.155622 0
1.104832 -0.145858 0
1.138545 -0.135605 0
1.177524 -0.118612 0
1.214976 -0.088788 0
1.235509 -0.069374 0
1.000000 -0.014180 0
0.999339 -0.048711 0
1.010517 -0.085868 0
1.016004 -0.131596 0
1.045077 -0.192582 0
1.090379 -0.255648 0
1.174357 -0.363974 0
1.434284 -0.374502 0
1.515209 -0.235453 0
1.523479 -0.106883 0
1.512229 -0.009852 0
1.475414 0.053942 0
1.411355 0.081162 0
1.408397 0.103427 0
1.383578 0.143357 0
1.149387 0.112674 0
0.970797 -0.062216 0
1.020295 -0.240630 0
1.089009 -0.314469 0
1.229765 -0.275696 0
1.374302 -0.113499 0
1.468056 0.090327 0
1.524155 0.264463 0
1.527109 0.388377 0
1.472145 0.458047 0
1.379153 0.485003 0
1.286613 0.484068 0
1.215254 0.469692 0
1.139112 0.493289 0
1.027537 0.540691 0
0.888502 0.541756 0
0.711671 0.556230 0
0.595722 0.515787 0
0.582711 0.301636 0
0.590859 0.035361 0
0.567434 -0.156032 0
0.473902 -0.298937 0
0.362208 -0.453671 0
0.369172 -0.586628 0
0.471027 -0.656649 0
0.594451 -0.666531 0
0.710863 -0.638367 0
0.803375 -0.581839 0
0.872859 -0.437394 0
0.959644 -0.236683 0
0.970586 -0.180627 0
0.856949 -0.250703 0
0.712591 -0.248700 0
0.636085 -0.173682 0
0.629057 -0.104380 0
0.675964 -0.052222 0
0.758404 0.004442 0
0.857738 0.075114 0
0.957269 0.134960 0
1.041531 0.169181 0
1.112550 0.197633 0
1.180830 0.233707 0
1.217326 0.270726 0
1.224267 0.311512 0
1.201921 0.331093 0
1.145373 0.270396 0
1.006499 0.176392 0
0.891873 0.113736 0
0.896169 0.048073 0
1.034783 -0.015951 0
1.164979 -0.032502 0
1.265671 0.008400 0
1.306724 0.080849 0
1.308368 0.156368 0
1.283742 0.221060 0
1.239853 0.272046 0
1.189323 0.307524 0
1.110025 0.314043 0
1.003465 0.310762 0
0.869497 0.311515 0
0.772405 0.294381 0
0.732640 0.256937 0
0.720577 0.215738 0
0.701564 0.173927 0
0.691728 0.114074 0
0.700614 0.032645 0
0.717423 -0.054150 0
0.733897 -0.129131 0
0.751454 -0.189405 0
0.771432 -0.234250 0
0.795806 -0.258529 0
0.820934 -0.267057 0
0.842880 -0.273070 0
0.862016 -0.284838 0
0.889015 -0.302391 0
0.928838 -0.306558 0
0.981907 -0.285556 0
1.033333 -0.251331 0
1.061519 -0.215030 0
1.066603 -0.188043 0
1.062321 -0.175381 0
1.060782 -0.173073 0
1.071647 -0.173040 0
1.099195 -0.162870 0
1.139146 -0.123348 0
1.159942 -0.092622 0
1.000000 -0.012758 0
0.998842 -0.052590 0
1.000947 -0.089924 0
0.997496 -0.143625 0
1.016729 -0.224864 0
1.023320 -0.320251 0
1.132970 -0.576571 0
1.476046 -0.573079 0
1.407815 -0.259196 0
1.326218 -0.090774 0
1.303005 0.020494 0
1.275739 0.120705 0
1.231022 0.113894 0
1.036167 0.089301 0
1.302242 0.323171 0
1.278652 0.438403 0
0.752954 0.060799 0
0.441287 -0.284886 0
0.332518 -0.412142 0
0.449650 -0.432977 0
0.724480 -0.261077 0
1.036332 -0.033776 0
1.225103 0.163093 0
1.320281 0.336984 0
1.386500 0.474056 0
1.401728 0.559605 0
1.369200 0.587820 0
1.309255 0.582030 0
1.234134 0.592141 0
1.172406 0.617771 0
1.086638 0.667659 0
0.928119 0.706513 0
0.837254 0.590546 0
0.789611 0.316705 0
0.753850 0.050379 0
0.711454 -0.080294 0
0.607160 -0.139351 0
0.498893 -0.316795 0
0.441122 -0.586395 0
0.446829 -0.772889 0
0.510462 -0.820772 0
0.608529 -0.748664 0
0.698470 -0.632493 0
0.735941 -0.535989 0
0.781338 -0.396217 0
0.828671 -0.186381 0
0.760221 -0.038481 0
0.630838 -0.035345 0
0.553423 -0.096049 0
0.542745 -0.127157 0
0.580660 -0.120408 0
0.648225 -0.096228 0
0.732458 -0.059560 0
0.818653 0.002611 0
0.880241 0.075282 0
0.922499 0.125983 0
0.978928 0.185484 0
1.045856 0.260642 0
1.089470 0.317595 0
1.092647 0.359203 0
1.023092 0.427472 0
0.827337 0.417660 0
0.628694 0.210636 0
0.589491 -0.087614 0
0.746724 -0.235680 0
0.992544 -0.198483 0
1.155123 -0.090836 0
1.207394 0.044257 0
1.214360 0.155346 0
1.189155 0.248193 0
1.135425 0.325966 0
1.063347 0.391368 0
0.997595 0.438028 0
0.939224 0.438932 0
0.910561 0.390095 0
0.921782 0.310170 0
0.899635 0.242876 0
0.827676 0.225245 0
0.782090 0.198551 0
0.788114 0.113847 0
0.827294 0.010664 0
0.869888 -0.078969 0
0.901317 -0.154377 0
0.925936 -0.211581 0
0.944751 -0.250616 0
0.960454 -0.278460 0
0.978271 -0.296918 0
0.998572 -0.306552 0
1.015554 -0.316493 0
1.032166 -0.331134 0
1.058264 -0.339795 0
1.111932 -0.325420 0
1.178905 -0.279758 0
1.229484 -0.218936 0
1.238197 -0.170375 0
1.205559 -0.149802 0
1.150991 -0.155185 0
1.100998 -0.174019 0
1.072852 -0.186112 0
1.075579 -0.149536 0
1.082794 -0.111946 0
1.000000 -0.013020 0
1.000940 -0.049657 0
0.992613 -0.084523 0
0.977029 -0.147380 0
0.983871 -0.218408 0
0.926226 -0.371889 0
1.028314 -0.816699 0
0.728531 -0.563724 0
0.000860 0.000000 0
0.001148 0.000000 0
0.540022 0.042700 0
0.583523 0.125931 0
0.521661 0.320738 0
0.617942 0.032211 0
0.422668 -0.099124 0
0.361971 0.661966 0
0.199369 0.775153 0
-0.236894 0.179809 0
-0.363198 -0.322828 0
-0.358813 -0.667653 0
-0.068121 -0.700178 0
0.408246 -0.410293 0
0.794144 -0.019482 0
1.020727 0.226983 0
1.138632 0.376603 0
1.217187 0.502307 0
1.271281 0.576543 0
1.277860 0.604760 0
1.240181 0.630140 0
1.177275 0.688189 0
1.077023 0.786044 0
1.006478 0.805614 0
1.009289 0.654296 0
1.015007 0.385040 0
0.926827 0.113517 0
0.750469 -0.009344 0
0.666839 -0.086378 0
0.717191 -0.287635 0
0.796108 -0.534567 0
0.810027 -0.725993 0
0.765604 -0.828234 0
0.733380 -0.826379 0
0.737014 -0.709254 0
0.684490 -0.520266 0
0.606911 -0.329418 0
0.585971 -0.159514 0
0.632465 -0.052874 0
0.687592 -0.041906 0
0.667425 -0.085593 0
0.595860 -0.131620 0
0.566996 -0.157705 0
0.602999 -0.147359 0
0.642566 -0.095316 0
0.667522 -0.012826 0
0.685111 0.065333 0
0.690174 0.098944 0
0.699344 0.110348 0
0.769542 0.160183 0
0.862964 0.264721 0
0.877975 0.397470 0
0.807281 0.535706 0
0.754359 0.570791 0
0.749182 0.351582 0
0.724184 -0.069956 0
0.645759 -0.419002 0
0.726343 -0.440899 0
0.878334 -0.206448 0
1.004752 0.021614 0
1.064401 0.174609 0
1.066554 0.299997 0
1.050770 0.397857 0
1.043147 0.445357 0
1.060558 0.438168 0
1.088774 0.397799 0
1.082625 0.328959 0
1.011432 0.305309 0
0.909997 0.351045 0
0.859186 0.333285 0
0.892822 0.213492 0
0.938614 0.068872 0
0.980504 -0.049128 0
1.018851 -0.128172 0
1.051463 -0.185178 0
1.075055 -0.232837 0
1.091915 -0.268767 0
1.099879 -0.292049 0
1.097660 -0.305175 0
1.085949 -0.310352 0
1.067500 -0.318433 0
1.027609 -0.345102 0
0.991306 -0.386323 0
1.025721 -0.406197 0
1.112718 -0.368883 0
1.202918 -0.274322 0
1.270969 -0.164118 0
1.301657 -0.088175 0
1.278037 -0.068512 0
1.213170 -0.094901 0
1.130684 -0.137451 0
1.063397 -0.133289 0
1.045181 -0.110200 0
1.000000 -0.013699 0
1.003574 -0.045205 0
0.976337 -0.066016 0
0.976847 -0.134886 0
0.915901 -0.174063 0
0.876579 -0.364695 0
0.702920 -0.464498 0
0.000000 -0.001253 0
-0.627865 0.172237 0
-0.553811 0.000000 0
0.000000 0.000000 0
0.048700 0.145069 0
0.123722 0.079479 0
0.388970 0.188297 0
0.037022 0.579146 0
-0.472839 0.661706 0
-0.472576 0.659667 0
-0.475057 0.277685 0
-0.433027 -0.290218 0
-0.394079 -0.728051 0
-0.303884 -1.028132 0
-0.090514 -0.896037 0
0.356875 -0.449385 0
0.720300 -0.007500 0
0.940619 0.277600 0
1.059845 0.426959 0
1.129712 0.527150 0
1.171668 0.613133 0
1.168157 0.692728 0
1.135072 0.780931 0
1.114216 0.838457 0
1.172639 0.774247 0
1.249417 0.582017 0
1.259849 0.399167 0
1.138687 0.314916 0
0.962133 0.179692 0
0.912167 -0.106075 0
0.951506 -0.446067 0
1.004639 -0.679234 0
1.066069 -0.742388 0
1.053684 -0.744129 0
0.959799 -0.720078 0
0.916726 -0.583607 0
0.888514 -0.405891 0
0.793638 -0.297702 0
0.692716 -0.211939 0
0.657288 -0.140106 0
0.627076 -0.070309 0
0.554950 -0.004321 0
0.478356 -0.026732 0
0.456561 -0.127550 0
0.480043 -0.171801 0
0.503025 -0.124086 0
0.508595 -0.039937 0
0.502306 0.052629 0
0.487068 0.111748 0
0.464423 0.106115 0
0.457132 0.097022 0
0.486969 0.209161 0
0.528982 0.414886 0
0.597420 0.551088 0
0.738809 0.475758 0
0.849692 0.240812 0
0.795501 0.015811 0
0.606214 -0.237837 0
0.443588 -0.431058 0
0.472093 -0.369244 0
0.624104 -0.141807 0
0.762974 0.093546 0
0.859553 0.261826 0
0.931684 0.349375 0
0.984182 0.381583 0
1.001115 0.392404 0
0.972872 0.416868 0
0.903278 0.467439 0
0.814501 0.482801 0
0.819587 0.395124 0
0.921731 0.242422 0
1.014811 0.119125 0
1.074384 0.026167 0
1.111122 -0.069572 0
1.141968 -0.149926 0
1.173175 -0.210579 0
1.195232 -0.252032 0
1.201767 -0.275438 0
1.193153 -0.284204 0
1.173713 -0.282987 0
1.148052 -0.276391 0
1.118957 -0.258153 0
1.071368 -0.254939 0
0.977325 -0.337906 0
0.865964 -0.446832 0
0.855675 -0.456954 0
0.908383 -0.377187 0
0.992920 -0.269114 0
1.078708 -0.156870 0
1.133112 -0.066697 0
1.116516 -0.026666 0
1.061912 -0.036338 0
1.030125 -0.064032 0
1.014211 -0.077436 0
1.000000 -0.016597 0
0.991772 -0.025999 0
0.965862 -0.057800 0
0.958347 -0.086948 0
0.865143 -0.118143 0
0.843785 -0.158911 0
0.496702 -0.020898 0
0.364940 0.058421 0
0.000000 0.000000 0
0.000000 0.000000 0
0.000000 0.000000 0
0.000000 0.000000 0
0.136860 -0.027738 0
0.085380 0.118914 0
-0.013807 0.762689 0
-0.265096 1.171567 0
-0.365550 0.777374 0
-0.151670 0.140265 0
-0.085246 -0.403802 0
0.002348 -0.796793 0
-0.024288 -1.003739 0
-0.047638 -1.071048 0
0.117749 -0.830291 0
0.443792 -0.356757 0
0.735699 0.037061 0
0.931359 0.313217 0
1.037759 0.464723 0
1.097563 0.566317 0
1.152750 0.666737 0
1.201664 0.742132 0
1.268343 0.748479 0
1.348191 0.670414 0
1.377268 0.567085 0
1.319964 0.495769 0
1.244127 0.411232 0
1.233354 0.217175 0
1.229931 -0.075753 0
1.167188 -0.380110 0
1.019761 -0.649133 0
0.925908 -0.775042 0
0.959300 -0.721967 0
0.968058 -0.689424 0
0.925263 -0.637974 0
0.959535 -0.397182 0
0.960282 -0.133624 0
0.896224 -0.023168 0
0.803576 0.012762 0
0.697339 0.060428 0
0.652356 0.063123 0
0.678412 -0.033235 0
0.699901 -0.159395 0
0.653678 -0.193826 0
0.561370 -0.123870 0
0.477200 -0.012110 0
0.403290 0.086858 0
0.348391 0.136826 0
0.299168 0.140282 0
0.243673 0.137637 0
0.210332 0.192870 0
0.279538 0.287019 0
0.448154 0.325880 0