# vtk DataFile Version 2.0
generated by CFD-lab course output (written by Tobias Neckel) 
ASCII

DATASET STRUCTURED_GRID
DIMENSIONS  101 21 1 
POINTS 2121 float

0.000000 0.000000 0
0.100000 0.000000 0
0.200000 0.000000 0
0.300000 0.000000 0
0.400000 0.000000 0
0.500000 0.000000 0
0.600000 0.000000 0
0.700000 0.000000 0
0.800000 0.000000 0
0.900000 0.000000 0
1.000000 0.000000 0
1.100000 0.000000 0
1.200000 0.000000 0
1.300000 0.000000 0
1.400000 0.000000 0
1.500000 0.000000 0
1.600000 0.000000 0
1.700000 0.000000 0
1.800000 0.000000 0
1.900000 0.000000 0
2.000000 0.000000 0
2.100000 0.000000 0
2.200000 0.000000 0
2.300000 0.000000 0
2.400000 0.000000 0
2.500000 0.000000 0
2.600000 0.000000 0
2.700000 0.000000 0
2.800000 0.000000 0
2.900000 0.000000 0
3.000000 0.000000 0
3.100000 0.000000 0
3.200000 0.000000 0
3.300000 0.000000 0
3.400000 0.000000 0
3.500000 0.000000 0
3.600000 0.000000 0
3.700000 0.000000 0
3.800000 0.000000 0
3.900000 0.000000 0
4.000000 0.000000 0
4.100000 0.000000 0
4.200000 0.000000 0
4.300000 0.000000 0
4.400000 0.000000 0
4.500000 0.000000 0
4.600000 0.000000 0
4.700000 0.000000 0
4.800000 0.000000 0
4.900000 0.000000 0
5.000000 0.000000 0
5.100000 0.000000 0
5.200000 0.000000 0
5.300000 0.000000 0
5.400000 0.000000 0
5.500000 0.000000 0
5.600000 0.000000 0
5.700000 0.000000 0
5.800000 0.000000 0
5.900000 0.000000 0
6.000000 0.000000 0
6.100000 0.000000 0
6.200000 0.000000 0
6.300000 0.000000 0
6.400000 0.000000 0
6.500000 0.000000 0
6.600000 0.000000 0
6.700000 0.000000 0
6.800000 0.000000 0
6.900000 0.000000 0
7.000000 0.000000 0
7.100000 0.000000 0
7.200000 0.000000 0
7.300000 0.000000 0
7.400000 0.000000 0
7.500000 0.000000 0
7.600000 0.000000 0
7.700000 0.000000 0
7.800000 0.000000 0
7.900000 0.000000 0
8.000000 0.000000 0
8.100000 0.000000 0
8.200000 0.000000 0
8.300000 0.000000 0
8.400000 0.000000 0
8.500000 0.000000 0
8.600000 0.000000 0
8.700000 0.000000 0
8.800000 0.000000 0
8.900000 0.000000 0
9.000000 0.000000 0
9.100000 0.000000 0
9.200000 0.000000 0
9.300000 0.000000 0
9.400000 0.000000 0
9.500000 0.000000 0
9.600000 0.000000 0
9.700000 0.000000 0
9.800000 0.000000 0
9.900000 0.000000 0
10.000000 0.000000 0
0.000000 0.100000 0
0.100000 0.100000 0
0.200000 0.100000 0
0.300000 0.100000 0
0.400000 0.100000 0
0.500000 0.100000 0
0.600000 0.100000 0
0.700000 0.100000 0
0.800000 0.100000 0
0.900000 0.100000 0
1.000000 0.100000 0
1.100000 0.100000 0
1.200000 0.100000 0
1.300000 0.100000 0
1.400000 0.100000 0
1.500000 0.100000 0
1.600000 0.100000 0
1.700000 0.100000 0
1.800000 0.100000 0
1.900000 0.100000 0
2.000000 0.100000 0
2.100000 0.100000 0
2.200000 0.100000 0
2.300000 0.100000 0
2.400000 0.100000 0
2.500000 0.100000 0
2.600000 0.100000 0
2.700000 0.100000 0
2.800000 0.100000 0
2.900000 0.100000 0
3.000000 0.100000 0
3.100000 0.100000 0
3.200000 0.100000 0
3.300000 0.100000 0
3.400000 0.100000 0
3.500000 0.100000 0
3.600000 0.100000 0
3.700000 0.100000 0
3.800000 0.100000 0
3.900000 0.100000 0
4.000000 0.100000 0
4.100000 0.100000 0
4.200000 0.100000 0
4.300000 0.100000 0
4.400000 0.100000 0
4.500000 0.100000 0
4.600000 0.100000 0
4.700000 0.100000 0
4.800000 0.100000 0
4.900000 0.100000 0
5.000000 0.100000 0
5.100000 0.100000 0
5.200000 0.100000 0
5.300000 0.100000 0
5.400000 0.100000 0
5.500000 0.100000 0
5.600000 0.100000 0
5.700000 0.100000 0
5.800000 0.100000 0
5.900000 0.100000 0
6.000000 0.100000 0
6.100000 0.100000 0
6.200000 0.100000 0
6.300000 0.100000 0
6.400000 0.100000 0
6.500000 0.100000 0
6.600000 0.100000 0
6.700000 0.100000 0
6.800000 0.100000 0
6.900000 0.100000 0
7.000000 0.100000 0
7.100000 0.100000 0
7.200000 0.100000 0
7.300000 0.100000 0
7.400000 0.100000 0
7.500000 0.100000 0
7.600000 0.100000 0
7.700000 0.100000 0
7.800000 0.100000 0
7.900000 0.100000 0
8.000000 0.100000 0
8.100000 0.100000 0
8.200000 0.100000 0
8.300000 0.100000 0
8.400000 0.100000 0
8.500000 0.100000 0
8.600000 0.100000 0
8.700000 0.100000 0
8.800000 0.100000 0
8.900000 0.100000 0
9.000000 0.100000 0
9.100000 0.100000 0
9.200000 0.100000 0
9.300000 0.100000 0
9.400000 0.100000 0
9.500000 0.100000 0
9.600000 0.100000 0
9.700000 0.100000 0
9.800000 0.100000 0
9.900000 0.100000 0
10.000000 0.100000 0
0.000000 0.200000 0
0.100000 0.200000 0
0.200000 0.200000 0
0.300000 0.200000 0
0.400000 0.200000 0
0.500000 0.200000 0
0.600000 0.200000 0
0.700000 0.200000 0
0.800000 0.200000 0
0.900000 0.200000 0
1.000000 0.200000 0
1.100000 0.200000 0
1.200000 0.200000 0
1.300000 0.200000 0
1.400000 0.200000 0
1.500000 0.200000 0
1.600000 0.200000 0
1.700000 0.200000 0
1.800000 0.200000 0
1.900000 0.200000 0
2.000000 0.200000 0
2.100000 0.200000 0
2.200000 0.200000 0
2.300000 0.200000 0
2.400000 0.200000 0
2.500000 0.200000 0
2.600000 0.200000 0
2.700000 0.200000 0
2.800000 0.200000 0
2.900000 0.200000 0
3.000000 0.200000 0
3.100000 0.200000 0
3.200000 0.200000 0
3.300000 0.200000 0
3.400000 0.200000 0
3.500000 0.200000 0
3.600000 0.200000 0
3.700000 0.200000 0
3.800000 0.200000 0
3.900000 0.200000 0
4.000000 0.200000 0
4.100000 0.200000 0
4.200000 0.200000 0
4.300000 0.200000 0
4.400000 0.200000 0
4.500000 0.200000 0
4.600000 0.200000 0
4.700000 0.200000 0
4.800000 0.200000 0
4.900000 0.200000 0
5.000000 0.200000 0
5.100000 0.200000 0
5.200000 0.200000 0
5.300000 0.200000 0
5.400000 0.200000 0
5.500000 0.200000 0
5.600000 0.200000 0
5.700000 0.200000 0
5.800000 0.200000 0
5.900000 0.200000 0
6.000000 0.200000 0
6.100000 0.200000 0
6.200000 0.200000 0
6.300000 0.200000 0
6.400000 0.200000 0
6.500000 0.200000 0
6.600000 0.200000 0
6.700000 0.200000 0
6.800000 0.200000 0
6.900000 0.200000 0
7.000000 0.200000 0
7.100000 0.200000 0
7.200000 0.200000 0
7.300000 0.200000 0
7.400000 0.200000 0
7.500000 0.200000 0
7.600000 0.200000 0
7.700000 0.200000 0
7.800000 0.200000 0
7.900000 0.200000 0
8.000000 0.200000 0
8.100000 0.200000 0
8.200000 0.200000 0
8.300000 0.200000 0
8.400000 0.200000 0
8.500000 0.200000 0
8.600000 0.200000 0
8.700000 0.200000 0
8.800000 0.200000 0
8.900000 0.200000 0
9.000000 0.200000 0
9.100000 0.200000 0
9.200000 0.200000 0
9.300000 0.200000 0
9.400000 0.200000 0
9.500000 0.200000 0
9.600000 0.200000 0
9.700000 0.200000 0
9.800000 0.200000 0
9.900000 0.200000 0
10.000000 0.200000 0
0.000000 0.300000 0
0.100000 0.300000 0
0.200000 0.300000 0
0.300000 0.300000 0
0.400000 0.300000 0
0.500000 0.300000 0
0.600000 0.300000 0
0.700000 0.300000 0
0.800000 0.300000 0
0.900000 0.300000 0
1.000000 0.300000 0
1.100000 0.300000 0
1.200000 0.300000 0
1.300000 0.300000 0
1.400000 0.300000 0
1.500000 0.300000 0
1.600000 0.300000 0
1.700000 0.300000 0
1.800000 0.300000 0
1.900000 0.300000 0
2.000000 0.300000 0
2.100000 0.300000 0
2.200000 0.300000 0
2.300000 0.300000 0
2.400000 0.300000 0
2.500000 0.300000 0
2.600000 0.300000 0
2.700000 0.300000 0
2.800000 0.300000 0
2.900000 0.300000 0
3.000000 0.300000 0
3.100000 0.300000 0
3.200000 0.300000 0
3.300000 0.300000 0
3.400000 0.300000 0
3.500000 0.300000 0
3.600000 0.300000 0
3.700000 0.300000 0
3.800000 0.300000 0
3.900000 0.300000 0
4.000000 0.300000 0
4.100000 0.300000 0
4.200000 0.300000 0
4.300000 0.300000 0
4.400000 0.300000 0
4.500000 0.300000 0
4.600000 0.300000 0
4.700000 0.300000 0
4.800000 0.300000 0
4.900000 0.300000 0
5.000000 0.300000 0
5.100000 0.300000 0
5.200000 0.300000 0
5.300000 0.300000 0
5.400000 0.300000 0
5.500000 0.300000 0
5.600000 0.300000 0
5.700000 0.300000 0
5.800000 0.300000 0
5.900000 0.300000 0
6.000000 0.300000 0
6.100000 0.300000 0
6.200000 0.300000 0
6.300000 0.300000 0
6.400000 0.300000 0
6.500000 0.300000 0
6.600000 0.300000 0
6.700000 0.300000 0
6.800000 0.300000 0
6.900000 0.300000 0
7.000000 0.300000 0
7.100000 0.300000 0
7.200000 0.300000 0
7.300000 0.300000 0
7.400000 0.300000 0
7.500000 0.300000 0
7.600000 0.300000 0
7.700000 0.300000 0
7.800000 0.300000 0
7.900000 0.300000 0
8.000000 0.300000 0
8.100000 0.300000 0
8.200000 0.300000 0
8.300000 0.300000 0
8.400000 0.300000 0
8.500000 0.300000 0
8.600000 0.300000 0
8.700000 0.300000 0
8.800000 0.300000 0
8.900000 0.300000 0
9.000000 0.300000 0
9.100000 0.300000 0
9.200000 0.300000 0
9.300000 0.300000 0
9.400000 0.300000 0
9.500000 0.300000 0
9.600000 0.300000 0
9.700000 0.300000 0
9.800000 0.300000 0
9.900000 0.300000 0
10.000000 0.300000 0
0.000000 0.400000 0
0.100000 0.400000 0
0.200000 0.400000 0
0.300000 0.400000 0
0.400000 0.400000 0
0.500000 0.400000 0
0.600000 0.400000 0
0.700000 0.400000 0
0.800000 0.400000 0
0.900000 0.400000 0
1.000000 0.400000 0
1.100000 0.400000 0
1.200000 0.400000 0
1.300000 0.400000 0
1.400000 0.400000 0
1.500000 0.400000 0
1.600000 0.400000 0
1.700000 0.400000 0
1.800000 0.400000 0
1.900000 0.400000 0
2.000000 0.400000 0
2.100000 0.400000 0
2.200000 0.400000 0
2.300000 0.400000 0
2.400000 0.400000 0
2.500000 0.400000 0
2.600000 0.400000 0
2.700000 0.400000 0
2.800000 0.400000 0
2.900000 0.400000 0
3.000000 0.400000 0
3.100000 0.400000 0
3.200000 0.400000 0
3.300000 0.400000 0
3.400000 0.400000 0
3.500000 0.400000 0
3.600000 0.400000 0
3.700000 0.400000 0
3.800000 0.400000 0
3.900000 0.400000 0
4.000000 0.400000 0
4.100000 0.400000 0
4.200000 0.400000 0
4.300000 0.400000 0
4.400000 0.400000 0
4.500000 0.400000 0
4.600000 0.400000 0
4.700000 0.400000 0
4.800000 0.400000 0
4.900000 0.400000 0
5.000000 0.400000 0
5.100000 0.400000 0
5.200000 0.400000 0
5.300000 0.400000 0
5.400000 0.400000 0
5.500000 0.400000 0
5.600000 0.400000 0
5.700000 0.400000 0
5.800000 0.400000 0
5.900000 0.400000 0
6.000000 0.400000 0
6.100000 0.400000 0
6.200000 0.400000 0
6.300000 0.400000 0
6.400000 0.400000 0
6.500000 0.400000 0
6.600000 0.400000 0
6.700000 0.400000 0
6.800000 0.400000 0
6.900000 0.400000 0
7.000000 0.400000 0
7.100000 0.400000 0
7.200000 0.400000 0
7.300000 0.400000 0
7.400000 0.400000 0
7.500000 0.400000 0
7.600000 0.400000 0
7.700000 0.400000 0
7.800000 0.400000 0
7.900000 0.400000 0
8.000000 0.400000 0
8.100000 0.400000 0
8.200000 0.400000 0
8.300000 0.400000 0
8.400000 0.400000 0
8.500000 0.400000 0
8.600000 0.400000 0
[...]
POINT_DATA 2121 

VECTORS velocity float
0.500000 0.000000 0
0.000033 0.000000 0
0.000110 0.000000 0
0.000249 0.000000 0
0.000455 0.000000 0
0.000723 0.000000 0
0.001033 0.000000 0
0.001356 0.000000 0
0.001640 0.000000 0
0.001865 0.000000 0
0.002032 0.000000 0
0.002136 0.000000 0
0.002169 0.000000 0
0.002119 0.000000 0
0.001935 0.000000 0
0.001498 0.000000 0
0.000651 0.000000 0
-0.001197 0.000000 0
-0.004734 0.000000 0
-0.010499 0.000000 0
-0.018231 0.000000 0
-0.025671 0.000000 0
-0.036007 0.000000 0
-0.032151 0.000000 0
-0.016604 0.000000 0
0.000030 0.000000 0
0.011875 0.000000 0
0.017798 0.000000 0
0.019353 0.000000 0
0.018429 0.000000 0
0.016592 0.000000 0
0.014033 0.000000 0
0.011203 0.000000 0
0.008384 0.000000 0
0.005730 0.000000 0
0.003302 0.000000 0
0.001147 0.000000 0
-0.000711 0.000000 0
-0.002385 0.000000 0
-0.003573 0.000000 0
-0.003476 0.000000 0
-0.001940 0.000000 0
0.000189 0.000000 0
0.002005 0.000000 0
0.003052 0.000000 0
0.003261 0.000000 0
0.003056 0.000000 0
0.004060 0.000000 0
0.006176 0.000000 0
-0.001509 0.000000 0
-0.007444 0.000000 0
0.007060 0.000000 0
0.021686 0.000000 0
0.021512 0.000000 0
0.009563 0.000000 0
-0.001080 0.000000 0
-0.008221 0.000000 0
-0.011828 0.000000 0
-0.012052 0.000000 0
-0.006369 0.000000 0
0.000307 0.000000 0
0.004395 0.000000 0
0.005220 0.000000 0
0.003823 0.000000 0
0.001707 0.000000 0
-0.000637 0.000000 0
-0.003314 0.000000 0
-0.006501 0.000000 0
-0.009125 0.000000 0
-0.010723 0.000000 0
-0.010681 0.000000 0
-0.009155 0.000000 0
-0.007115 0.000000 0
-0.005513 0.000000 0
-0.006421 0.000000 0
-0.007313 0.000000 0
-0.007832 0.000000 0
-0.008031 0.000000 0
-0.007919 0.000000 0
-0.007586 0.000000 0
-0.007051 0.000000 0
-0.006202 0.000000 0
-0.004926 0.000000 0
-0.003064 0.000000 0
-0.000268 0.000000 0
0.003099 0.000000 0
0.005089 0.000000 0
0.003935 0.000000 0
0.000058 0.000000 0
-0.004011 0.000000 0
-0.003686 0.000000 0
0.001226 0.000000 0
0.008095 0.000000 0
0.012899 0.000000 0
0.013711 0.000000 0
0.011380 0.000000 0
0.009171 0.000000 0
0.023898 0.000000 0
0.025234 0.000000 0
0.020904 0.000000 0
0.019789 0.000000 0
1.000000 -0.004886 0
1.010420 -0.014912 0
1.031361 -0.025142 0
1.062762 -0.034940 0
1.104079 -0.043428 0
1.153792 -0.049199 0
1.208529 -0.050342 0
1.262686 -0.044713 0
1.306568 -0.031957 0
1.333089 -0.014295 0
1.339036 0.005518 0
1.324031 0.025370 0
1.289340 0.044056 0
1.236615 0.060877 0
1.167981 0.075106 0
1.086228 0.085656 0
0.994504 0.092480 0
0.896733 0.088726 0
0.810408 0.065209 0
0.750070 0.013929 0
0.741587 -0.065658 0
0.814954 -0.167345 0
1.028888 -0.275146 0
1.360102 -0.307406 0
1.680329 -0.226982 0
1.881553 -0.101936 0
1.946106 0.008734 0
1.901694 0.081725 0
1.795193 0.118382 0
1.665274 0.129961 0
1.534545 0.127528 0
1.413909 0.116608 0
1.309880 0.099634 0
1.223736 0.079119 0
1.156003 0.056831 0
1.108422 0.034048 0
1.082429 0.012060 0
1.077200 -0.007844 0
1.090628 -0.024504 0
1.121917 -0.034664 0
1.163381 -0.033248 0
1.198100 -0.019454 0
1.211882 0.000768 0
1.202184 0.019611 0
1.174679 0.031936 0
1.137240 0.036281 0
1.096231 0.036491 0
1.054846 0.051901 0
1.013936 0.062438 0
0.986035 -0.008604 0
0.983402 -0.052143 0
0.969751 0.091356 0
0.899855 0.270322 0
0.781500 0.273657 0
0.679789 0.136478 0
0.623060 -0.001576 0
0.613696 -0.087808 0
0.655058 -0.134196 0
0.732887 -0.132560 0
0.731012 -0.080385 0
0.665104 -0.013548 0
0.587093 0.034985 0
0.519512 0.052361 0
0.468873 0.046728 0
0.436275 0.031151 0
0.418473 0.011230 0
0.416842 -0.013882 0
0.437527 -0.046083 0
0.488624 -0.076620 0
0.569960 -0.094096 0
0.668821 -0.093966 0
0.769949 -0.078956 0
0.861363 -0.059972 0
0.935781 -0.046409 0
0.993409 -0.046628 0
1.044152 -0.054860 0
1.101003 -0.060410 0
1.162270 -0.063100 0
1.224661 -0.063014 0
1.285378 -0.060555 0
1.342526 -0.055796 0
1.394016 -0.048174 0
1.436484 -0.037065 0
1.465550 -0.021363 0
1.477350 0.000274 0
1.468970 0.023709 0
1.438479 0.036089 0
1.391380 0.026374 0
1.346032 -0.002098 0
1.325715 -0.029625 0
1.331553 -0.032774 0
1.342507 -0.005821 0
1.341386 0.034994 0
1.327887 0.066506 0
1.291776 0.076545 0
1.222187 0.066739 0
1.089210 0.072159 0
0.935300 0.126701 0
0.806311 0.154465 0
0.712972 0.092042 0
0.680277 0.040679 0
1.000000 -0.010412 0
1.010748 -0.031350 0
1.032380 -0.052334 0
1.065182 -0.072711 0
1.109386 -0.091023 0
1.164669 -0.104443 0
1.228374 -0.108887 0
1.296763 -0.098032 0
1.351512 -0.070395 0
1.383567 -0.032460 0
1.391008 0.009065 0
1.375159 0.049703 0
1.339080 0.087422 0
1.284540 0.121365 0
1.213215 0.150392 0
1.127340 0.173482 0
1.030913 0.189499 0
0.928641 0.184099 0
0.823468 0.146666 0
0.732379 0.068824 0
0.667427 -0.064881 0
0.618639 -0.287298 0
0.755893 -0.545146 0
1.081146 -0.651439 0
1.449221 -0.521449 0
1.720927 -0.265775 0
1.875040 -0.020139 0
1.901297 0.150915 0
1.829729 0.236422 0
1.710087 0.260651 0
1.581682 0.251369 0
1.460595 0.224668 0
1.351806 0.190177 0
1.259555 0.153881 0
1.188927 0.115319 0
1.140967 0.073580 0
1.114485 0.031228 0
1.106758 -0.008193 0
1.113528 -0.044711 0
1.143624 -0.072745 0
1.196424 -0.076175 0
1.248083 -0.048493 0
1.273500 -0.004075 0
1.268743 0.037213 0
1.241889 0.064953 0
1.201935 0.078458 0
1.155667 0.082405 0
1.110133 0.082306 0
1.086309 0.068822 0
1.071794 0.030545 0
1.014033 0.016295 0
0.999469 0.083558 0
1.086534 0.188262 0
1.197993 0.220078 0
1.245153 0.158452 0
1.223881 0.066104 0
1.174453 -0.031986 0
1.105745 -0.119179 0
0.962287 -0.075942 0
0.751090 0.067795 0
0.566641 0.143930 0
0.441126 0.145603 0
0.372511 0.118231 0
0.342755 0.083248 0
0.335434 0.050410 0
0.338220 0.019443 0
0.345157 -0.019044 0
0.358169 -0.071773 0
0.382979 -0.132425 0
0.430083 -0.180189 0
0.501289 -0.199981 0
0.595225 -0.192534 0
0.705132 -0.165825 0
0.819114 -0.132041 0
0.919900 -0.108367 0
0.993557 -0.107591 0
1.050040 -0.118115 0
1.109291 -0.123656 0
1.169058 -0.123107 0
1.225795 -0.117866 0
1.278317 -0.108640 0
1.325559 -0.093961 0
1.364428 -0.071537 0
1.389989 -0.040871 0
1.398915 -0.003426 0
1.390367 0.038864 0
1.360487 0.077583 0
1.299402 0.092438 0
1.206045 0.065655 0
1.103530 0.014469 0
1.065959 -0.016804 0
1.064277 -0.009845 0
1.063927 0.014608 0
1.043131 0.049597 0
0.986850 0.105686 0
0.884540 0.202552 0
0.750700 0.286873 0
0.642532 0.282885 0
0.617149 0.222314 0
0.630568 0.126019 0
0.616455 0.063822 0
1.000000 -0.015629 0
1.009744 -0.047286 0
1.030547 -0.079573 0
1.063262 -0.111944 0
1.109573 -0.142914 0
1.171662 -0.168185 0
1.248051 -0.182434 0
1.348054 -0.167849 0
1.421573 -0.118759 0
1.459725 -0.053788 0
1.466282 0.013928 0
1.444991 0.077300 0
1.403736 0.134676 0
1.343221 0.186744 0
1.266104 0.232307 0
1.177513 0.267959 0
1.077677 0.291181 0
0.937520 0.296171 0
0.818676 0.261471 0
0.737591 0.169970 0
0.592305 0.048083 0
0.461733 -0.255811 0
0.494508 -0.737653 0
0.672432 -1.000734 0
1.002976 -0.866762 0
1.308878 -0.527754 0
1.542095 -0.171635 0
1.686592 0.127037 0
1.721615 0.309593 0
1.665536 0.378010 0
1.562518 0.377021 0
1.447799 0.346485 0
1.342241 0.300676 0
1.257285 0.242000 0
1.187264 0.175421 0
1.122848 0.108492 0
1.082176 0.046271 0
1.078572 -0.006885 0
1.081045 -0.061367 0
1.100901 -0.117557 0
1.151210 -0.137704 0
1.214162 -0.096526 0
1.250177 -0.019888 0
1.252651 0.051226 0
1.233757 0.098748 0
1.203278 0.122508 0
1.167710 0.128297 0
1.132809 0.121264 0
1.102035 0.100781 0
1.065126 0.063676 0
1.025091 0.020186 0
1.068577 0.018860 0
1.175059 0.071802 0
1.299860 0.115043 0
1.370668 0.110595 0
1.364492 0.069130 0
1.321950 0.030333 0
1.159855 0.077974 0
0.837448 0.222099 0
0.559433 0.315266 0
0.389082 0.296420 0
0.304374 0.229119 0
0.279522 0.150737 0
0.290622 0.083809 0
0.322132 0.035690 0
0.367218 0.001511 0
0.413700 -0.033828 0
0.445737 -0.083902 0
0.454108 -0.148530 0
0.446175 -0.212402 0
0.444409 -0.259106 0
0.471040 -0.282798 0
0.539934 -0.283859 0
0.653004 -0.261176 0
0.789060 -0.221070 0
0.910472 -0.185000 0
0.994192 -0.176144 0
1.057081 -0.182118 0
1.117568 -0.179518 0
1.170915 -0.169815 0
1.217915 -0.155562 0
1.259675 -0.134287 0
1.293437 -0.101497 0
1.311723 -0.055853 0
1.306348 -0.000108 0
1.274473 0.062133 0
1.222883 0.127050 0
1.159014 0.180811 0
1.084755 0.193770 0
1.010367 0.110457 0
0.957733 0.006474 0
0.913002 -0.003794 0
0.853903 0.056134 0
0.763652 0.143576 0
0.654631 0.235131 0
0.564099 0.302883 0
0.548799 0.314161 0
0.590181 0.260246 0
0.648959 0.166423 0
0.686563 0.092730 0
0.679313 0.068883 0
1.000000 -0.020152 0
1.007215 -0.061892 0
1.025975 -0.105851 0
1.056379 -0.151736 0
1.102639 -0.199422 0
1.170127 -0.242919 0
1.260778 -0.285278 0
1.429329 -0.271552 0
1.528030 -0.182064 0
1.566963 -0.077167 0
1.568337 0.023801 0
1.544460 0.112250 0
1.501553 0.189193 0
1.432955 0.258997 0
1.338617 0.316100 0
1.213085 0.361909 0
1.073130 0.429493 0
0.958930 0.443100 0
0.857404 0.346595 0
0.699846 0.295195 0
0.522059 0.210977 0
0.550563 -0.189502 0
0.595266 -0.755845 0
0.591695 -1.159907 0
0.711167 -1.157895 0
0.957517 -0.804894 0
1.144875 -0.397853 0
1.293567 -0.028605 0
1.424900 0.257479 0
1.481757 0.419749 0
1.460711 0.469107 0
1.396515 0.444947 0
1.321544 0.380692 0
1.239591 0.308860 0
1.138942 0.249758 0
1.046495 0.178671 0
1.033069 0.075506 0
1.119610 -0.007060 0
1.163721 -0.067037 0
1.135868 -0.142908 0
1.087157 -0.189432 0
1.066840 -0.147456 0
1.085751 -0.042560 0
1.104713 0.053637 0
1.106523 0.114331 0
1.097712 0.144510 0
1.082971 0.152878 0
1.067325 0.147985 0
1.062463 0.136510 0
1.061974 0.107494 0
1.018156 0.012848 0
0.972220 -0.066405 0
1.024658 -0.043016 0
1.169684 0.024474 0
1.262164 0.093826 0
1.241147 0.114826 0
1.078803 0.172655 0
0.798850 0.365328 0
0.510643 0.524484 0
0.338710 0.516166 0
0.267677 0.398993 0
0.264403 0.255166 0
0.297849 0.131987 0
0.341134 0.040642 0
0.391488 -0.026182 0
0.452885 -0.072122 0
0.524760 -0.097559 0
0.589984 -0.112177 0
0.621952 -0.132860 0
0.608237 -0.170487 0
0.563497 -0.224844 0
0.521609 -0.288057 0
0.514531 -0.347787 0
0.564016 -0.381166 0
0.672996 -0.365834 0
0.811971 -0.312722 0
0.935634 -0.264724 0
1.019938 -0.247032 0
1.084748 -0.236941 0
1.134455 -0.218213 0
1.174301 -0.197402 0
1.210308 -0.169485 0
1.242126 -0.123589 0
1.260017 -0.053785 0
1.251788 0.033822 0
1.212775 0.122326 0
1.157362 0.193037 0
1.106642 0.230561 0
1.066853 0.214298 0
1.042265 0.141487 0
0.957771 0.080556 0
0.846450 0.093979 0
0.738310 0.163952 0
0.650187 0.248863 0
0.597049 0.305234 0
0.604916 0.308378 0
0.659278 0.260785 0
0.724210 0.182719 0
0.774617 0.125926 0
0.745035 0.095659 0
0.730423 0.079909 0
1.000000 -0.022841 0
1.000303 -0.073258 0
1.016900 -0.128737 0
1.039809 -0.188607 0
1.080997 -0.256661 0
1.142552 -0.326324 0
1.250053 -0.441635 0
1.557110 -0.435100 0
1.644405 -0.256392 0
1.654988 -0.094094 0
1.646922 0.036432 0
1.626267 0.144085 0
1.606982 0.246181 0
1.563309 0.349680 0
1.466324 0.452177 0
1.337536 0.533446 0
1.213858 0.545335 0
1.098382 0.511897 0
0.864390 0.520554 0
0.608279 0.505314 0
0.578296 0.197365 0
0.712978 -0.329019 0
0.749941 -0.778785 0
0.705382 -1.116634 0
0.654482 -1.232584 0
0.749581 -0.961462 0
0.881303 -0.507686 0
0.996903 -0.152987 0
1.113604 0.121404 0
1.202413 0.342200 0
1.260410 0.462264 0
1.276974 0.485654 0
1.242463 0.457602 0
1.153774 0.424603 0
1.074354 0.368519 0
1.077496 0.214368 0
1.096706 -0.026841 0
0.956059 -0.137534 0
0.858937 -0.077621 0
0.800126 -0.040990 0
0.745619 -0.068672 0
0.717509 -0.095116 0
0.750926 -0.057758 0
0.815270 0.030457 0
0.868743 0.105753 0
0.894353 0.146064 0
0.911159 0.158689 0
0.943584 0.141775 0
0.984095 0.106137 0
1.003155 0.107988 0
0.956847 0.109945 0
0.798966 0.012362 0
0.716255 -0.125658 0
0.810704 -0.122458 0
0.914412 0.039137 0
0.879346 0.252495 0
0.659025 0.472634 0
0.405441 0.646139 0
0.277842 0.682244 0
0.276741 0.558236 0
0.345463 0.370732 0
0.424261 0.198952 0
0.489773 0.074010 0
0.537592 -0.009827 0
0.570585 -0.076058 0
0.595321 -0.131757 0
0.625675 -0.170924 0
0.670977 -0.181090 0
0.720608 -0.166780 0
0.762085 -0.153946 0
0.782695 -0.172476 0
0.783435 -0.233829 0
0.767086 -0.326265 0
0.744654 -0.419640 0
0.748745 -0.469024 0
0.810146 -0.447637 0
0.909194 -0.384111 0
1.004383 -0.331232 0
1.065691 -0.294036 0
1.103760 -0.259369 0
1.126459 -0.231416 0
1.145982 -0.202114 0
1.170570 -0.151209 0
1.193637 -0.065518 0
1.204722 0.047131 0
1.177841 0.156555 0
1.120916 0.233179 0
1.052619 0.271316 0
1.005055 0.258142 0
0.956223 0.219534 0
0.868289 0.202284 0
0.763158 0.215661 0
0.676958 0.252391 0
0.635105 0.284832 0
0.650573 0.280396 0
0.710874 0.240649 0
0.782660 0.194861 0
0.820534 0.144900 0
0.806266 0.145592 0
0.738181 0.136918 0
0.718302 0.100141 0
1.000000 -0.020453 0
0.997316 -0.078790 0
1.007577 -0.145357 0
1.010464 -0.215833 0
1.041488 -0.302165 0
1.066321 -0.411976 0
1.226294 -0.699835 0
1.603233 -0.665902 0
1.525625 -0.279941 0
1.442648 -0.079683 0
1.433226 0.052524 0
1.424553 0.152191 0
1.470791 0.252152 0
1.543156 0.399656 0
1.525293 0.541873 0
1.424230 0.614375 0
1.269699 0.668646 0
1.078863 0.792567 0
0.912137 0.836698 0
0.857261 0.581288 0
0.832151 0.106277 0
0.750626 -0.361147 0
0.708602 -0.748249 0
0.676395 -1.064448 0
0.616694 -1.202094 0
0.603964 -1.031715 0
0.688159 -0.645175 0
0.785769 -0.260906 0
0.863273 0.051970 0
0.959265 0.272944 0
1.042189 0.394546 0
1.083170 0.462895 0
1.088017 0.503894 0
1.093209 0.476971 0
1.204685 0.326039 0
1.174126 0.156321 0
0.907208 0.196944 0
0.575139 0.230712 0
0.384804 0.088899 0
0.336832 -0.029587 0
0.348879 -0.106812 0
0.378031 -0.152759 0
0.430765 -0.140317 0
0.521984 -0.064177 0
0.625288 0.035252 0
0.706705 0.102097 0
0.770266 0.103651 0
0.819602 0.075054 0
0.842587 0.076943 0
0.830799 0.134746 0
0.812753 0.217042 0
0.771574 0.174191 0
0.672242 -0.054750 0
0.515396 -0.173679 0
0.435105 0.025187 0
0.369713 0.370218 0
0.278042 0.646565 0
0.228386 0.746515 0
0.289131 0.653188 0
0.412571 0.448549 0
0.529004 0.251478 0
0.603765 0.110860 0
0.645902 0.018660 0
0.680267 -0.040166 0
0.712789 -0.083908 0
0.746287 -0.127209 0
0.774970 -0.173211 0
0.809383 -0.207107 0
0.863160 -0.223966 0
0.925727 -0.232572 0
0.993531 -0.246192 0
1.053551 -0.272446 0
1.095323 -0.309004 0
1.113148 -0.362824 0
1.096353 -0.431326 0
1.058969 -0.473171 0
1.043199 -0.458960 0
1.060374 -0.403530 0
1.082327 -0.336319 0
1.092684 -0.278983 0
1.085036 -0.239626 0
1.066630 -0.213598 0
1.037821 -0.171246 0
1.023105 -0.087941 0
1.009330 0.049615 0
0.975310 0.206129 0
0.924697 0.318255 0
0.879588 0.346418 0
0.859380 0.310689 0
0.831491 0.278247 0
0.784180 0.273616 0
0.721872 0.285304 0
0.673772 0.292000 0
0.664910 0.275242 0
0.699967 0.229459 0
0.752222 0.176286 0
0.795243 0.151119 0
0.802585 0.159107 0
0.742314 0.208273 0
0.665795 0.183618 0
0.647779 0.120514 0
1.000000 -0.020157 0
0.995496 -0.080835 0
0.997974 -0.141885 0
0.981753 -0.222519 0
0.996609 -0.312519 0
0.960571 -0.511129 0
1.076885 -0.978547 0
0.785296 -0.638624 0
0.000579 0.000000 0
0.000467 0.000000 0
0.598422 0.056221 0
0.652985 0.106520 0
0.693427 0.127579 0
1.180483 0.295178 0
1.320221 0.571103 0
1.263392 0.789040 0
1.142042 0.890702 0
1.078334 0.869458 0
1.092192 0.742155 0
0.985489 0.585299 0
0.726276 0.304000 0
0.623483 -0.205471 0
0.619726 -0.704555 0
0.624071 -1.024726 0
0.577177 -1.160153 0
0.549084 -1.032928 0
0.567829 -0.689491 0
0.601125 -0.328101 0
0.671710 -0.052092 0
0.779918 0.163284 0
0.877087 0.338360 0
0.963995 0.439827 0
1.091204 0.447564 0
1.181503 0.307937 0
1.052654 0.287604 0
0.755227 0.511846 0
0.461120 0.572147 0
0.378976 0.384873 0
0.326418 0.160689 0
0.278588 -0.005062 0
0.255535 -0.109868 0
0.248938 -0.176998 0
0.258637 -0.201707 0
0.310980 -0.164062 0
0.402588 -0.078964 0
0.508845 0.001090 0
0.596267 0.045796 0
0.641781 0.069459 0
0.658943 0.094944 0
0.678293 0.137826 0
0.728260 0.169174 0
0.811133 0.152877 0
0.796125 0.130526 0
0.594652 0.114683 0
0.365397 0.184825 0
0.239002 0.409563 0
0.237925 0.613965 0
0.353028 0.635054 0
0.527702 0.498064 0
0.692867 0.318367 0
0.797953 0.179542 0
0.838392 0.082058 0
0.824858 -0.002489 0
0.792430 -0.076710 0
0.785256 -0.142073 0
0.816261 -0.193935 0
0.877094 -0.234017 0
0.947906 -0.269277 0
1.012487 -0.283122 0
1.066814 -0.284314 0
1.111834 -0.300299 0
1.142811 -0.335620 0
1.161414 -0.385860 0
1.187975 -0.420669 0
1.214612 -0.414844 0
1.214592 -0.394482 0
1.192968 -0.385516 0
1.163797 -0.370361 0
1.139859 -0.326347 0
1.108299 -0.262080 0
1.066090 -0.205364 0
1.000161 -0.154901 0
0.920285 -0.107687 0
0.846243 -0.037030 0
0.783389 0.094923 0
0.752857 0.241184 0
0.756487 0.328897 0
0.793059 0.336629 0
0.819519 0.306234 0
0.806888 0.294729 0
0.763565 0.311898 0
0.719959 0.326064 0
0.702830 0.309348 0
0.722047 0.258631 0
0.764684 0.193078 0
0.795124 0.145366 0
0.786079 0.144491 0
0.731151 0.197824 0
0.644573 0.282376 0
0.604979 0.231448 0
0.599347 0.135265 0
1.000000 -0.015950 0
1.000336 -0.076765 0
0.975648 -0.131615 0
0.974361 -0.214469 0
0.916106 -0.280986 0
0.889511 -0.492254 0
0.666213 -0.620367 0
0.000000 -0.005702 0
-0.675833 0.259727 0
-0.600695 0.000000 0
0.000000 0.000000 0
0.053827 0.054792 0
0.097160 -0.275347 0
0.328629 -0.227138 0
0.930429 0.458962 0
0.900819 0.792553 0
0.929574 0.853703 0
0.909698 0.842416 0
0.812660 0.929542 0
0.522928 0.947203 0
0.494600 0.468281 0
0.581911 -0.254599 0
0.596718 -0.748839 0
0.596019 -1.021900 0
0.558036 -1.127108 0
0.517256 -1.022367 0
0.552785 -0.697216 0
0.581525 -0.364788 0
0.576310 -0.126823 0
0.630102 0.067568 0
0.801633 0.210470 0
0.972929 0.248779 0
1.004302 0.286387 0
0.863021 0.515522 0
0.550741 0.752316 0
0.385583 0.747857 0
0.399306 0.573198 0
0.396892 0.365417 0
0.348369 0.189289 0
0.290810 0.041298 0
0.245534 -0.077159 0
0.218982 -0.155857 0
0.201244 -0.202356 0
0.205936 -0.208124 0
0.252204 -0.162609 0
0.336452 -0.091578 0
0.432149 -0.029281 0
0.518788 0.012383 0
0.594535 0.040436 0
0.678202 0.065433 0
0.778734 0.084206 0
0.860865 0.106331 0
0.888059 0.161735 0
0.873726 0.257053 0
0.786546 0.380843 0
0.729356 0.497694 0
0.800365 0.532543 0
0.979856 0.456743 0
1.164253 0.313354 0
1.266026 0.178303 0
1.260137 0.105957 0
1.192239 0.083959 0
1.105515 0.064626 0
1.036949 -0.000560 0
1.011332 -0.107736 0
1.027567 -0.219044 0
1.074933 -0.304853 0
1.128543 -0.342496 0
1.168283 -0.342872 0
1.196322 -0.331917 0
1.200168 -0.322187 0
1.173603 -0.322025 0
1.115063 -0.354167 0
1.009205 -0.416022 0
0.927348 -0.457942 0
0.942178 -0.451526 0
1.016928 -0.408165 0
1.080258 -0.350421 0
1.100189 -0.280823 0
1.084675 -0.205215 0
1.031050 -0.131490 0
0.945786 -0.067795 0
0.861724 -0.017331 0
0.778395 0.048952 0
0.721556 0.142997 0
0.719718 0.233027 0
0.761634 0.278049 0
0.808805 0.283382 0
0.820504 0.296855 0
0.793422 0.334197 0
0.762322 0.360539 0
0.755954 0.346034 0
0.776521 0.289906 0
0.818043 0.213382 0
0.850613 0.156376 0
0.824899 0.154885 0
0.743515 0.215086 0
0.651948 0.300606 0
0.609211 0.334438 0
0.663607 0.228838 0
0.677468 0.129534 0
1.000000 -0.020494 0
0.998898 -0.056486 0
0.967838 -0.115913 0
0.957034 -0.162980 0
0.868246 -0.227671 0
0.822996 -0.261239 0
0.476005 -0.172972 0
0.306158 -0.056346 0
0.000000 0.000000 0
0.000000 0.000000 0
0.000000 0.000000 0
0.000000 0.000000 0
0.047827 -0.154189 0
-0.265571 -0.538092 0
0.030580 -0.001089 0
0.469071 0.789892 0
0.516012 0.881821 0
0.434936 0.986371 0
0.217036 1.128922 0
0.241279 0.903357 0
0.607650 0.245016 0
0.754391 -0.307590 0
0.708121 -0.718665 0
0.620576 -0.986045 0
0.568028 -1.081391 0
0.503087 -1.027678 0
0.529308 -0.753760 0
0.575415 -0.351626 0
0.547132 -0.100670 0
0.562362 -0.062038 0
0.689491 -0.004466 0
0.740454 0.237158 0
0.572451 0.557473 0
0.369575 0.761499 0
0.341713 0.765045 0
0.384808 0.663283 0
0.386050 0.560839 0
0.344896 0.435813 0
0.307841 0.266774 0
0.280847 0.097775 0
0.249630 -0.038037 0
0.222715 -0.132705 0
0.211141 -0.188658 0
0.213113 -0.215019 0
0.239889 -0.209476 0
0.302724 -0.178851 0
0.395809 -0.136537 0
0.505967 -0.092923 0
0.617754 -0.064466 0
0.713021 -0.046368 0
0.801348 -0.013484 0
0.885410 0.043557 0
0.967730 0.117669 0
1.042675 0.216200 0
1.127541 0.329199 0
1.248952 0.395748 0
1.398704 0.363469 0
1.519978 0.271171 0
1.565957 0.211898 0
1.516135 0.222487 0
1.403682 0.253333 0
1.287217 0.236684 0
1.216173 0.152805 0
1.203586 0.017477 0
1.223845 -0.132687 0
1.252715 -0.257533 0