# vtk DataFile Version 2.0
generated by CFD-lab course output (written by Tobias Neckel) 
ASCII

DATASET STRUCTURED_GRID
DIMENSIONS  101 21 1 
POINTS 2121 float

0.000000 0.000000 0
0.100000 0.000000 0
0.200000 0.000000 0
0.300000 0.000000 0
0.400000 0.000000 0
0.500000 0.000000 0
0.600000 0.000000 0
0.700000 0.000000 0
0.800000 0.000000 0
0.900000 0.000000 0
1.000000 0.000000 0
1.100000 0.000000 0
1.200000 0.000000 0
1.300000 0.000000 0
1.400000 0.000000 0
1.500000 0.000000 0
1.600000 0.000000 0
1.700000 0.000000 0
1.800000 0.000000 0
1.900000 0.000000 0
2.000000 0.000000 0
2.100000 0.000000 0
2.200000 0.000000 0
2.300000 0.000000 0
2.400000 0.000000 0
2.500000 0.000000 0
2.600000 0.000000 0
2.700000 0.000000 0
2.800000 0.000000 0
2.900000 0.000000 0
3.000000 0.000000 0
3.100000 0.000000 0
3.200000 0.000000 0
3.300000 0.000000 0
3.400000 0.000000 0
3.500000 0.000000 0
3.600000 0.000000 0
3.700000 0.000000 0
3.800000 0.000000 0
3.900000 0.000000 0
4.000000 0.000000 0
4.100000 0.000000 0
4.200000 0.000000 0
4.300000 0.000000 0
4.400000 0.000000 0
4.500000 0.000000 0
4.600000 0.000000 0
4.700000 0.000000 0
4.800000 0.000000 0
4.900000 0.000000 0
5.000000 0.000000 0
5.100000 0.000000 0
5.200000 0.000000 0
5.300000 0.000000 0
5.400000 0.000000 0
5.500000 0.000000 0
5.600000 0.000000 0
5.700000 0.000000 0
5.800000 0.000000 0
5.900000 0.000000 0
6.000000 0.000000 0
6.100000 0.000000 0
6.200000 0.000000 0
6.300000 0.000000 0
6.400000 0.000000 0
6.500000 0.000000 0
6.600000 0.000000 0
6.700000 0.000000 0
6.800000 0.000000 0
6.900000 0.000000 0
7.000000 0.000000 0
7.100000 0.000000 0
7.200000 0.000000 0
7.300000 0.000000 0
7.400000 0.000000 0
7.500000 0.000000 0
7.600000 0.000000 0
7.700000 0.000000 0
7.800000 0.000000 0
7.900000 0.000000 0
8.000000 0.000000 0
8.100000 0.000000 0
8.200000 0.000000 0
8.300000 0.000000 0
8.400000 0.000000 0
8.500000 0.000000 0
8.600000 0.000000 0
8.700000 0.000000 0
8.800000 0.000000 0
8.900000 0.000000 0
9.000000 0.000000 0
9.100000 0.000000 0
9.200000 0.000000 0
9.300000 0.000000 0
9.400000 0.000000 0
9.500000 0.000000 0
9.600000 0.000000 0
9.700000 0.000000 0
9.800000 0.000000 0
9.900000 0.000000 0
10.000000 0.000000 0
0.000000 0.100000 0
0.100000 0.100000 0
0.200000 0.100000 0
0.300000 0.100000 0
0.400000 0.100000 0
0.500000 0.100000 0
0.600000 0.100000 0
0.700000 0.100000 0
0.800000 0.100000 0
0.900000 0.100000 0
1.000000 0.100000 0
1.100000 0.100000 0
1.200000 0.100000 0
1.300000 0.100000 0
1.400000 0.100000 0
1.500000 0.100000 0
1.600000 0.100000 0
1.700000 0.100000 0
1.800000 0.100000 0
1.900000 0.100000 0
2.000000 0.100000 0
2.100000 0.100000 0
2.200000 0.100000 0
2.300000 0.100000 0
2.400000 0.100000 0
2.500000 0.100000 0
2.600000 0.100000 0
2.700000 0.100000 0
2.800000 0.100000 0
2.900000 0.100000 0
3.000000 0.100000 0
3.100000 0.100000 0
3.200000 0.100000 0
3.300000 0.100000 0
3.400000 0.100000 0
3.500000 0.100000 0
3.600000 0.100000 0
3.700000 0.100000 0
3.800000 0.100000 0
3.900000 0.100000 0
4.000000 0.100000 0
4.100000 0.100000 0
4.200000 0.100000 0
4.300000 0.100000 0
4.400000 0.100000 0
4.500000 0.100000 0
4.600000 0.100000 0
4.700000 0.100000 0
4.800000 0.100000 0
4.900000 0.100000 0
5.000000 0.100000 0
5.100000 0.100000 0
5.200000 0.100000 0
5.300000 0.100000 0
5.400000 0.100000 0
5.500000 0.100000 0
5.600000 0.100000 0
5.700000 0.100000 0
5.800000 0.100000 0
5.900000 0.100000 0
6.000000 0.100000 0
6.100000 0.100000 0
6.200000 0.100000 0
6.300000 0.100000 0
6.400000 0.100000 0
6.500000 0.100000 0
6.600000 0.100000 0
6.700000 0.100000 0
6.800000 0.100000 0
6.900000 0.100000 0
7.000000 0.100000 0
7.100000 0.100000 0
7.200000 0.100000 0
7.300000 0.100000 0
7.400000 0.100000 0
7.500000 0.100000 0
7.600000 0.100000 0
7.700000 0.100000 0
7.800000 0.100000 0
7.900000 0.100000 0
8.000000 0.100000 0
8.100000 0.100000 0
8.200000 0.100000 0
8.300000 0.100000 0
8.400000 0.100000 0
8.500000 0.100000 0
8.600000 0.100000 0
8.700000 0.100000 0
8.800000 0.100000 0
8.900000 0.100000 0
9.000000 0.100000 0
9.100000 0.100000 0
9.200000 0.100000 0
9.300000 0.100000 0
9.400000 0.100000 0
9.500000 0.100000 0
9.600000 0.100000 0
9.700000 0.100000 0
9.800000 0.100000 0
9.900000 0.100000 0
10.000000 0.100000 0
0.000000 0.200000 0
0.100000 0.200000 0
0.200000 0.200000 0
0.300000 0.200000 0
0.400000 0.200000 0
0.500000 0.200000 0
0.600000 0.200000 0
0.700000 0.200000 0
0.800000 0.200000 0
0.900000 0.200000 0
1.000000 0.200000 0
1.100000 0.200000 0
1.200000 0.200000 0
1.300000 0.200000 0
1.400000 0.200000 0
1.500000 0.200000 0
1.600000 0.200000 0
1.700000 0.200000 0
1.800000 0.200000 0
1.900000 0.200000 0
2.000000 0.200000 0
2.100000 0.200000 0
2.200000 0.200000 0
2.300000 0.200000 0
2.400000 0.200000 0
2.500000 0.200000 0
2.600000 0.200000 0
2.700000 0.200000 0
2.800000 0.200000 0
2.900000 0.200000 0
3.000000 0.200000 0
3.100000 0.200000 0
3.200000 0.200000 0
3.300000 0.200000 0
3.400000 0.200000 0
3.500000 0.200000 0
3.600000 0.200000 0
3.700000 0.200000 0
3.800000 0.200000 0
3.900000 0.200000 0
4.000000 0.200000 0
4.100000 0.200000 0
4.200000 0.200000 0
4.300000 0.200000 0
4.400000 0.200000 0
4.500000 0.200000 0
4.600000 0.200000 0
4.700000 0.200000 0
4.800000 0.200000 0
4.900000 0.200000 0
5.000000 0.200000 0
5.100000 0.200000 0
5.200000 0.200000 0
5.300000 0.200000 0
5.400000 0.200000 0
5.500000 0.200000 0
5.600000 0.200000 0
5.700000 0.200000 0
5.800000 0.200000 0
5.900000 0.200000 0
6.000000 0.200000 0
6.100000 0.200000 0
6.200000 0.200000 0
6.300000 0.200000 0
6.400000 0.200000 0
6.500000 0.200000 0
6.600000 0.200000 0
6.700000 0.200000 0
6.800000 0.200000 0
6.900000 0.200000 0
7.000000 0.200000 0
7.100000 0.200000 0
7.200000 0.200000 0
7.300000 0.200000 0
7.400000 0.200000 0
7.500000 0.200000 0
7.600000 0.200000 0
7.700000 0.200000 0
7.800000 0.200000 0
7.900000 0.200000 0
8.000000 0.200000 0
8.100000 0.200000 0
8.200000 0.200000 0
8.300000 0.200000 0
8.400000 0.200000 0
8.500000 0.200000 0
8.600000 0.200000 0
8.700000 0.200000 0
8.800000 0.200000 0
8.900000 0.200000 0
9.000000 0.200000 0
9.100000 0.200000 0
9.200000 0.200000 0
9.300000 0.200000 0
9.400000 0.200000 0
9.500000 0.200000 0
9.600000 0.200000 0
9.700000 0.200000 0
9.800000 0.200000 0
9.900000 0.200000 0
10.000000 0.200000 0
0.000000 0.300000 0
0.100000 0.300000 0
0.200000 0.300000 0
0.300000 0.300000 0
0.400000 0.300000 0
0.500000 0.300000 0
0.600000 0.300000 0
0.700000 0.300000 0
0.800000 0.300000 0
0.900000 0.300000 0
1.000000 0.300000 0
1.100000 0.300000 0
1.200000 0.300000 0
1.300000 0.300000 0
1.400000 0.300000 0
1.500000 0.300000 0
1.600000 0.300000 0
1.700000 0.300000 0
1.800000 0.300000 0
1.900000 0.300000 0
2.000000 0.300000 0
2.100000 0.300000 0
2.200000 0.300000 0
2.300000 0.300000 0
2.400000 0.300000 0
2.500000 0.300000 0
2.600000 0.300000 0
2.700000 0.300000 0
2.800000 0.300000 0
2.900000 0.300000 0
3.000000 0.300000 0
3.100000 0.300000 0
3.200000 0.300000 0
3.300000 0.300000 0
3.400000 0.300000 0
3.500000 0.300000 0
3.600000 0.300000 0
3.700000 0.300000 0
3.800000 0.300000 0
3.900000 0.300000 0
4.000000 0.300000 0
4.100000 0.300000 0
4.200000 0.300000 0
4.300000 0.300000 0
4.400000 0.300000 0
4.500000 0.300000 0
4.600000 0.300000 0
4.700000 0.300000 0
4.800000 0.300000 0
4.900000 0.300000 0
5.000000 0.300000 0
5.100000 0.300000 0
5.200000 0.300000 0
5.300000 0.300000 0
5.400000 0.300000 0
5.500000 0.300000 0
5.600000 0.300000 0
5.700000 0.300000 0
5.800000 0.300000 0
5.900000 0.300000 0
6.000000 0.300000 0
6.100000 0.300000 0
6.200000 0.300000 0
6.300000 0.300000 0
6.400000 0.300000 0
6.500000 0.300000 0
6.600000 0.300000 0
6.700000 0.300000 0
6.800000 0.300000 0
6.900000 0.300000 0
7.000000 0.300000 0
7.100000 0.300000 0
7.200000 0.300000 0
7.300000 0.300000 0
7.400000 0.300000 0
7.500000 0.300000 0
7.600000 0.300000 0
7.700000 0.300000 0
7.800000 0.300000 0
7.900000 0.300000 0
8.000000 0.300000 0
8.100000 0.300000 0
8.200000 0.300000 0
8.300000 0.300000 0
8.400000 0.300000 0
8.500000 0.300000 0
8.600000 0.300000 0
8.700000 0.300000 0
8.800000 0.300000 0
8.900000 0.300000 0
9.000000 0.300000 0
9.100000 0.300000 0
9.200000 0.300000 0
9.300000 0.300000 0
9.400000 0.300000 0
9.500000 0.300000 0
9.600000 0.300000 0
9.700000 0.300000 0
9.800000 0.300000 0
9.900000 0.300000 0
10.000000 0.300000 0
0.000000 0.400000 0
0.100000 0.400000 0
0.200000 0.400000 0
0.300000 0.400000 0
0.400000 0.400000 0
0.500000 0.400000 0
0.600000 0.400000 0
0.700000 0.400000 0
0.800000 0.400000 0
0.900000 0.400000 0
1.000000 0.400000 0
1.100000 0.400000 0
1.200000 0.400000 0
1.300000 0.400000 0
1.400000 0.400000 0
1.500000 0.400000 0
1.600000 0.400000 0
1.700000 0.400000 0
1.800000 0.400000 0
1.900000 0.400000 0
2.000000 0.400000 0
2.100000 0.400000 0
2.200000 0.400000 0
2.300000 0.400000 0
2.400000 0.400000 0
2.500000 0.400000 0
2.600000 0.400000 0
2.700000 0.400000 0
2.800000 0.400000 0
2.900000 0.400000 0
3.000000 0.400000 0
3.100000 0.400000 0
3.200000 0.400000 0
3.300000 0.400000 0
3.400000 0.400000 0
3.500000 0.400000 0
3.600000 0.400000 0
3.700000 0.400000 0
3.800000 0.400000 0
3.900000 0.400000 0
4.000000 0.400000 0
4.100000 0.400000 0
4.200000 0.400000 0
4.300000 0.400000 0
4.400000 0.400000 0
4.500000 0.400000 0
4.600000 0.400000 0
4.700000 0.400000 0
4.800000 0.400000 0
4.900000 0.400000 0
5.000000 0.400000 0
5.100000 0.400000 0
5.200000 0.400000 0
5.300000 0.400000 0
5.400000 0.400000 0
5.500000 0.400000 0
5.600000 0.400000 0
5.700000 0.400000 0
5.800000 0.400000 0
5.900000 0.400000 0
6.000000 0.400000 0
6.100000 0.400000 0
6.200000 0.400000 0
6.300000 0.400000 0
6.400000 0.400000 0
6.500000 0.400000 0
6.600000 0.400000 0
6.700000 0.400000 0
6.800000 0.400000 0
6.900000 0.400000 0
7.000000 0.400000 0
7.100000 0.400000 0
7.200000 0.400000 0
7.300000 0.400000 0
7.400000 0.400000 0
7.500000 0.400000 0
7.600000 0.400000 0
7.700000 0.400000 0
7.800000 0.400000 0
7.900000 0.400000 0
8.000000 0.400000 0
8.100000 0.400000 0
8.200000 0.400000 0
8.300000 0.400000 0
8.400000 0.400000 0
8.500000 0.400000 0
8.600000 0.400000 0
[...]
POINT_DATA 2121 

VECTORS velocity float
0.500000 0.000000 0
-0.000049 0.000000 0
-0.000151 0.000000 0
-0.000314 0.000000 0
-0.000529 0.000000 0
-0.000775 0.000000 0
-0.001026 0.000000 0
-0.001248 0.000000 0
-0.001383 0.000000 0
-0.001367 0.000000 0
-0.001150 0.000000 0
-0.000755 0.000000 0
-0.000227 0.000000 0
0.000426 0.000000 0
0.001213 0.000000 0
0.002140 0.000000 0
0.003159 0.000000 0
0.004159 0.000000 0
0.004789 0.000000 0
0.005162 0.000000 0
0.009848 0.000000 0
0.010746 0.000000 0
0.009655 0.000000 0
0.004525 0.000000 0
0.004835 0.000000 0
0.009066 0.000000 0
0.000754 0.000000 0
-0.011851 0.000000 0
-0.020915 0.000000 0
-0.023703 0.000000 0
-0.021021 0.000000 0
-0.018728 0.000000 0
-0.022630 0.000000 0
-0.024670 0.000000 0
-0.027689 0.000000 0
-0.027403 0.000000 0
-0.016910 0.000000 0
-0.006848 0.000000 0
-0.000894 0.000000 0
0.007824 0.000000 0
0.025184 0.000000 0
0.032416 0.000000 0
0.032161 0.000000 0
0.024738 0.000000 0
0.015788 0.000000 0
0.008679 0.000000 0
0.004247 0.000000 0
0.001954 0.000000 0
0.001009 0.000000 0
0.000868 0.000000 0
0.001219 0.000000 0
0.001717 0.000000 0
0.001938 0.000000 0
0.002473 0.000000 0
0.005479 0.000000 0
0.003096 0.000000 0
-0.004285 0.000000 0
0.008118 0.000000 0
0.018588 0.000000 0
0.017845 0.000000 0
0.009597 0.000000 0
0.001030 0.000000 0
-0.006058 0.000000 0
-0.007221 0.000000 0
-0.008882 0.000000 0
-0.008270 0.000000 0
-0.005919 0.000000 0
-0.002832 0.000000 0
0.000746 0.000000 0
0.004025 0.000000 0
0.005669 0.000000 0
0.004855 0.000000 0
0.002663 0.000000 0
0.000313 0.000000 0
-0.001629 0.000000 0
-0.003317 0.000000 0
-0.005157 0.000000 0
-0.007123 0.000000 0
-0.008601 0.000000 0
-0.009383 0.000000 0
-0.009339 0.000000 0
-0.008550 0.000000 0
-0.007385 0.000000 0
-0.006328 0.000000 0
-0.006103 0.000000 0
-0.006459 0.000000 0
-0.006773 0.000000 0
-0.006718 0.000000 0
-0.006489 0.000000 0
-0.006091 0.000000 0
-0.005492 0.000000 0
-0.004687 0.000000 0
-0.003704 0.000000 0
-0.002556 0.000000 0
-0.001211 0.000000 0
0.000305 0.000000 0
0.001719 0.000000 0
0.002584 0.000000 0
0.002515 0.000000 0
0.001281 0.000000 0
0.000480 0.000000 0
1.000000 -0.003414 0
1.007378 -0.010938 0
1.023203 -0.019690 0
1.048522 -0.029307 0
1.084262 -0.039107 0
1.130391 -0.047819 0
1.185141 -0.053761 0
1.245086 -0.054884 0
1.302892 -0.050257 0
1.352504 -0.040788 0
1.389480 -0.028215 0
1.411966 -0.014418 0
1.419912 -0.000771 0
1.414509 0.012155 0
1.397043 0.024737 0
1.367631 0.037933 0
1.324431 0.052165 0
1.266333 0.065920 0
1.194068 0.075480 0
1.107906 0.089722 0
0.999854 0.122524 0
0.892046 0.163620 0
0.819658 0.190715 0
0.698908 0.158840 0
0.479635 0.150758 0
0.210599 0.173606 0
0.067386 0.058600 0
0.112866 -0.136882 0
0.286368 -0.257081 0
0.527983 -0.278804 0
0.782546 -0.237029 0
1.005128 -0.205110 0
1.203611 -0.206494 0
1.398950 -0.208216 0
1.581620 -0.207909 0
1.743683 -0.185001 0
1.879629 -0.123212 0
1.975382 -0.048948 0
2.014407 0.006536 0
1.984993 0.066316 0
1.884631 0.145684 0
1.731912 0.198504 0
1.564179 0.197754 0
1.419962 0.156658 0
1.319827 0.100225 0
1.262526 0.052582 0
1.234906 0.022789 0
1.222166 0.009282 0
1.213566 0.006869 0
1.203267 0.011049 0
1.188027 0.018631 0
1.165736 0.026089 0
1.135397 0.031400 0
1.097160 0.043255 0
1.052926 0.057632 0
1.013016 0.020157 0
0.989072 -0.008795 0
0.948518 0.103617 0
0.862367 0.242642 0
0.752275 0.250018 0
0.659010 0.154408 0
0.610642 0.034456 0
0.597528 -0.058981 0
0.566248 -0.101121 0
0.547153 -0.112067 0
0.594771 -0.104127 0
0.633596 -0.070562 0
0.645562 -0.028749 0
0.622133 0.013067 0
0.564321 0.048154 0
0.487225 0.064944 0
0.417890 0.056077 0
0.374059 0.030503 0
0.356467 0.004330 0
0.358040 -0.012584 0
0.370304 -0.022658 0
0.393214 -0.034541 0
0.434704 -0.051083 0
0.495601 -0.067170 0
0.574286 -0.077321 0
0.662789 -0.079840 0
0.754245 -0.075218 0
0.839789 -0.066511 0
0.915847 -0.057781 0
0.983322 -0.057420 0
1.048343 -0.062248 0
1.112012 -0.063143 0
1.173694 -0.061566 0
1.232654 -0.058527 0
1.288164 -0.054332 0
1.339126 -0.048816 0
1.383971 -0.041921 0
1.421152 -0.033864 0
1.449649 -0.024882 0
1.468787 -0.015070 0
1.478029 -0.004969 0
1.477885 0.003559 0
1.471236 0.008447 0
1.462166 0.006168 0
1.456230 0.002555 0
1.451365 0.001774 0
1.000000 -0.007391 0
1.007477 -0.023221 0
1.023737 -0.041154 0
1.049923 -0.061068 0
1.088037 -0.081877 0
1.138985 -0.100886 0
1.201143 -0.114703 0
1.273527 -0.117758 0
1.342043 -0.107423 0
1.399135 -0.086593 0
1.439822 -0.059466 0
1.463354 -0.030436 0
1.470453 -0.002544 0
1.463916 0.022869 0
1.446776 0.046878 0
1.420059 0.072614 0
1.378620 0.101301 0
1.320406 0.130368 0
1.244035 0.158432 0
1.148112 0.194219 0
1.050710 0.215865 0
0.961526 0.180202 0
0.812659 0.193144 0
0.640070 0.340028 0
0.458780 0.488314 0
0.338364 0.412253 0
0.361697 0.097737 0
0.408938 -0.218980 0
0.450371 -0.415116 0
0.530433 -0.496177 0
0.682073 -0.477145 0
0.896579 -0.421066 0
1.092612 -0.393824 0
1.264063 -0.378011 0
1.414600 -0.344735 0
1.529281 -0.298012 0
1.622034 -0.231702 0
1.700088 -0.134781 0
1.738927 -0.009614 0
1.706620 0.129773 0
1.625728 0.253080 0
1.532067 0.320450 0
1.442541 0.311949 0
1.371963 0.244352 0
1.325813 0.157436 0
1.302886 0.084922 0
1.294592 0.040362 0
1.289635 0.021342 0
1.280812 0.018902 0
1.267529 0.025543 0
1.250866 0.037535 0
1.230201 0.052636 0
1.201520 0.068582 0
1.161629 0.082478 0
1.122193 0.084151 0
1.092146 0.063861 0
1.032882 0.064506 0
0.990872 0.126713 0
1.040960 0.196252 0
1.125181 0.203366 0
1.179404 0.141642 0
1.177270 0.061492 0
1.117822 0.044404 0
1.015801 0.050384 0
0.908343 -0.028514 0
0.759757 -0.086433 0
0.648703 -0.050781 0
0.612451 0.011473 0
0.566954 0.081250 0
0.489534 0.134917 0
0.409690 0.146441 0
0.353068 0.113175 0
0.319831 0.061432 0
0.302124 0.016028 0
0.295918 -0.013827 0
0.299038 -0.035164 0
0.315078 -0.064390 0
0.357174 -0.102378 0
0.417126 -0.139572 0
0.493269 -0.167177 0
0.582017 -0.179949 0
0.678547 -0.176988 0
0.775938 -0.161591 0
0.868351 -0.143521 0
0.961043 -0.132484 0
1.033197 -0.128677 0
1.096208 -0.125337 0
1.153833 -0.120628 0
1.208099 -0.114456 0
1.259350 -0.106458 0
1.306784 -0.095792 0
1.348203 -0.082011 0
1.380881 -0.065663 0
1.403506 -0.047619 0
1.416778 -0.028364 0
1.421769 -0.009083 0
1.418056 0.006808 0
1.404392 0.015735 0
1.383031 0.015023 0
1.361863 0.010818 0
1.351143 0.008720 0
1.000000 -0.010899 0
1.005930 -0.034684 0
1.021208 -0.062138 0
1.046102 -0.093608 0
1.085805 -0.128170 0
1.142726 -0.160928 0
1.214899 -0.188305 0
1.314218 -0.195786 0
1.401135 -0.175866 0
1.463317 -0.138567 0
1.506014 -0.092435 0
1.529434 -0.045050 0
1.532402 -0.001331 0
1.521273 0.035833 0
1.506284 0.068594 0
1.485472 0.106090 0
1.444715 0.151820 0
1.384974 0.200506 0
1.310409 0.247776 0
1.226743 0.283048 0
1.143213 0.309112 0
1.019828 0.401674 0
0.775119 0.512172 0
0.631180 0.512720 0
0.568052 0.452465 0
0.581833 0.270689 0
0.622378 -0.011975 0
0.579461 -0.225558 0
0.539966 -0.378576 0
0.528560 -0.510508 0
0.551933 -0.603177 0
0.669634 -0.615651 0
0.863747 -0.573981 0
1.052125 -0.530206 0
1.193852 -0.473129 0
1.302092 -0.392438 0
1.375033 -0.294020 0
1.409908 -0.165843 0
1.419679 0.000002 0
1.402100 0.179514 0
1.356636 0.320236 0
1.306710 0.381690 0
1.270142 0.357858 0
1.247763 0.273387 0
1.249097 0.169301 0
1.270632 0.083803 0
1.298473 0.036041 0
1.315202 0.023064 0
1.310579 0.028976 0
1.290205 0.040998 0
1.262577 0.055962 0
1.234493 0.075437 0
1.205069 0.099975 0
1.165794 0.122586 0
1.121975 0.127119 0
1.088751 0.109472 0
1.056007 0.092483 0
1.059314 0.095543 0
1.129441 0.108337 0
1.236968 0.111578 0
1.319176 0.102324 0
1.337116 0.096043 0
1.293758 0.102492 0
1.236191 0.108362 0
1.131032 0.143981 0
0.951206 0.155517 0
0.846238 0.076748 0
0.763738 0.053004 0
0.619352 0.135987 0
0.496015 0.205422 0
0.444703 0.201414 0
0.432558 0.145939 0
0.428549 0.081451 0
0.421261 0.028246 0
0.416884 -0.009494 0
0.427961 -0.041814 0
0.460855 -0.092674 0
0.507267 -0.153127 0
0.560774 -0.203260 0
0.621149 -0.242208 0
0.688108 -0.265113 0
0.757316 -0.269135 0
0.829219 -0.256311 0
0.908523 -0.242882 0
0.984003 -0.222261 0
1.047694 -0.197408 0
1.101973 -0.183774 0
1.150173 -0.173452 0
1.194565 -0.164039 0
1.236730 -0.153012 0
1.277097 -0.137664 0
1.313026 -0.116013 0
1.339155 -0.089163 0
1.351269 -0.060774 0
1.348790 -0.033327 0
1.333642 -0.006241 0
1.307973 0.020941 0
1.274822 0.043477 0
1.243324 0.048702 0
1.221958 0.034448 0
1.210833 0.022555 0
1.000000 -0.013328 0
1.001876 -0.044437 0
1.016564 -0.081327 0
1.035861 -0.125667 0
1.075955 -0.178503 0
1.137864 -0.229982 0
1.222216 -0.286195 0
1.382474 -0.303994 0
1.485757 -0.256523 0
1.541924 -0.191473 0
1.580705 -0.125584 0
1.604529 -0.056823 0
1.601248 0.005618 0
1.578236 0.048988 0
1.566852 0.082680 0
1.572105 0.134184 0
1.547193 0.201801 0
1.472534 0.264676 0
1.365885 0.316664 0
1.254737 0.361416 0
1.139237 0.422781 0
1.012762 0.548296 0
0.962653 0.581793 0
0.983736 0.547095 0
0.875883 0.537661 0
0.756265 0.357926 0
0.598756 0.100107 0
0.457677 -0.136569 0
0.421470 -0.364216 0
0.470583 -0.508147 0
0.501789 -0.618222 0
0.521455 -0.732883 0
0.619037 -0.776317 0
0.789539 -0.708119 0
0.950710 -0.594706 0
1.067464 -0.479196 0
1.130108 -0.339520 0
1.140364 -0.179429 0
1.101947 -0.001809 0
1.040162 0.192815 0
1.013088 0.348469 0
1.025649 0.406943 0
1.044424 0.370896 0
1.074264 0.265397 0
1.117322 0.134567 0
1.178928 0.035546 0
1.243350 -0.004207 0
1.290757 0.009238 0
1.301895 0.043900 0
1.290699 0.073547 0
1.263138 0.093251 0
1.231134 0.110146 0
1.204604 0.137284 0
1.170111 0.165575 0
1.088795 0.161197 0
0.980222 0.129833 0
0.943062 0.093947 0
0.987801 0.053283 0
1.097315 0.018602 0
1.225640 0.013635 0
1.326892 0.041497 0
1.369837 0.086913 0
1.348724 0.145333 0
1.275264 0.213115 0
1.196326 0.256476 0
1.194184 0.198365 0
1.110134 0.136691 0
0.834508 0.238363 0
0.618763 0.348976 0
0.521942 0.309570 0
0.509468 0.209902 0
0.524477 0.129333 0
0.538681 0.072733 0
0.549607 0.027696 0
0.571923 -0.020524 0
0.619561 -0.079131 0
0.686344 -0.143692 0
0.755099 -0.202293 0
0.821938 -0.253450 0
0.874937 -0.294507 0
0.920159 -0.316112 0
0.963056 -0.318095 0
1.004791 -0.312794 0
1.047887 -0.298301 0
1.083742 -0.271651 0
1.121815 -0.246643 0
1.156484 -0.227812 0
1.187489 -0.213216 0
1.213659 -0.201009 0
1.237272 -0.188985 0
1.262304 -0.172083 0
1.287791 -0.144066 0
1.305690 -0.103901 0
1.307414 -0.057250 0
1.288315 -0.010734 0
1.251137 0.031739 0
1.206253 0.065633 0
1.168758 0.080388 0
1.154237 0.067891 0
1.145174 0.043313 0
1.135957 0.030716 0
1.000000 -0.012780 0
0.998263 -0.051254 0
1.010025 -0.096123 0
1.014628 -0.152999 0
1.054400 -0.230174 0
1.109363 -0.307190 0
1.214004 -0.432916 0
1.489051 -0.459328 0
1.564851 -0.335316 0
1.565154 -0.233515 0
1.571419 -0.155040 0
1.595984 -0.065593 0
1.592298 0.024962 0
1.545992 0.070230 0
1.532492 0.074725 0
1.612857 0.125750 0
1.659082 0.251392 0
1.625026 0.381816 0
1.512275 0.465574 0
1.358663 0.509697 0
1.198235 0.551088 0
1.086098 0.578258 0
1.101453 0.541197 0
1.027728 0.599488 0
0.878558 0.679935 0
0.771602 0.547814 0
0.648497 0.286610 0
0.571949 -0.048274 0
0.504543 -0.391486 0
0.489424 -0.590831 0
0.542633 -0.654052 0
0.577294 -0.732903 0
0.585569 -0.842068 0
0.644940 -0.861883 0
0.763760 -0.751058 0
0.864152 -0.571839 0
0.904083 -0.366923 0
0.892784 -0.137684 0
0.881427 0.100202 0
0.888543 0.268370 0
0.870823 0.334748 0
0.814503 0.350353 0
0.776446 0.309242 0
0.782214 0.200489 0
0.817308 0.064637 0
0.873011 -0.042224 0
0.937553 -0.075787 0
0.993779 -0.035480 0
1.027999 0.029036 0
1.040236 0.079757 0
1.023593 0.115529 0
0.986551 0.133974 0
0.978693 0.161001 0
1.006680 0.238397 0
1.004823 0.317011 0
0.916307 0.255208 0
0.788065 0.084908 0
0.760294 -0.058706 0
0.922165 -0.129499 0
1.118364 -0.117995 0
1.235353 -0.041869 0
1.290672 0.074214 0
1.282026 0.197069 0
1.266252 0.260764 0
1.284635 0.225065 0
1.176659 0.241713 0
0.898023 0.436428 0
0.646352 0.544378 0
0.570181 0.448557 0
0.578110 0.314721 0
0.589355 0.198882 0
0.590384 0.116729 0
0.588969 0.056325 0
0.605572 -0.004992 0
0.650998 -0.079444 0
0.720663 -0.156231 0
0.798525 -0.228209 0
0.867849 -0.288718 0
0.919281 -0.323095 0
0.947927 -0.340425 0
0.965515 -0.353229 0
0.983974 -0.353764 0
1.008545 -0.341139 0
1.040312 -0.321829 0
1.083128 -0.296186 0
1.129755 -0.270146 0
1.173728 -0.249444 0
1.210788 -0.230623 0
1.233081 -0.213819 0
1.241002 -0.201654 0
1.246853 -0.188179 0
1.257135 -0.159395 0
1.262960 -0.108782 0
1.259553 -0.043395 0
1.246557 0.022954 0
1.225837 0.075824 0
1.202251 0.103323 0
1.179147 0.095497 0
1.147459 0.072290 0
1.077353 0.052731 0
1.053628 0.043047 0
1.000000 -0.011595 0
0.999132 -0.054466 0
0.999273 -0.097692 0
0.992871 -0.170042 0
1.020916 -0.273239 0
1.033393 -0.389586 0
1.189250 -0.665884 0
1.519633 -0.654841 0
1.399432 -0.332626 0
1.262894 -0.198042 0
1.168679 -0.156414 0
1.156291 -0.077702 0
1.270329 0.055610 0
1.184775 0.108795 0
0.964053 0.015816 0
1.345285 0.007594 0
1.535354 0.189633 0
1.620577 0.411483 0
1.594613 0.583028 0
1.486736 0.675456 0
1.344659 0.695346 0
1.232252 0.645078 0
1.122344 0.640162 0
0.917551 0.769989 0
0.844118 0.793784 0
0.827112 0.587984 0
0.798155 0.299757 0
0.776542 0.007382 0
0.706341 -0.281694 0
0.597066 -0.546240 0
0.572077 -0.706096 0
0.628034 -0.775822 0
0.662920 -0.843967 0
0.676647 -0.886313 0
0.713044 -0.813921 0
0.760078 -0.619523 0
0.810698 -0.368156 0
0.842181 -0.156776 0
0.835579 0.002430 0
0.820257 0.203416 0
0.781562 0.422506 0
0.747800 0.501319 0
0.760444 0.403184 0
0.769939 0.224534 0
0.744468 0.043770 0
0.694405 -0.084697 0
0.660503 -0.124974 0
0.652956 -0.081208 0
0.662103 -0.002556 0
0.660882 0.077955 0
0.659513 0.146938 0
0.668153 0.155049 0
0.685812 0.117158 0
0.730961 0.139448 0
0.824151 0.251573 0
0.889109 0.346595 0
0.826558 0.249963 0
0.733372 -0.080813 0
0.733191 -0.339464 0
0.894415 -0.299549 0
1.077055 -0.130806 0
1.166564 0.040244 0
1.196420 0.169757 0
1.183477 0.210510 0
1.057660 0.346072 0
0.781147 0.584981 0
0.563230 0.667002 0
0.556568 0.566208 0
0.595116 0.417222 0
0.638113 0.290400 0
0.661165 0.197631 0
0.666114 0.129723 0
0.685325 0.057548 0
0.729502 -0.034330 0
0.793121 -0.135612 0
0.854769 -0.226655 0
0.900279 -0.290875 0
0.930806 -0.323046 0
0.951313 -0.333524 0
0.963824 -0.340737 0
0.948824 -0.352155 0
0.902783 -0.361122 0
0.857965 -0.369129 0
0.851938 -0.372882 0
0.897530 -0.361090 0
0.976625 -0.337239 0
1.054012 -0.308842 0
1.114557 -0.272566 0
1.161641 -0.231220 0
1.179405 -0.202755 0
1.181609 -0.188214 0
1.188548 -0.160169 0
1.184041 -0.106315 0
1.164738 -0.040843 0
1.140489 0.022985 0
1.115751 0.076048 0
1.086829 0.112326 0
1.054351 0.135183 0
0.993658 0.169688 0
0.917477 0.137147 0
0.895993 0.079236 0
1.000000 -0.011916 0
1.001417 -0.050529 0
0.988558 -0.089861 0
0.980457 -0.174642 0
0.966360 -0.270696 0
0.944109 -0.475525 0
1.028022 -0.919156 0
0.743219 -0.590933 0
-0.001399 0.000000 0
0.000116 0.000000 0
0.405991 -0.045675 0
0.330596 -0.167242 0
0.292608 -0.003521 0
0.334946 0.376505 0
0.237807 -0.085785 0
0.752515 -0.445550 0
1.177969 -0.023900 0
1.366393 0.322557 0
1.398279 0.599415 0
1.381268 0.759650 0
1.328749 0.805571 0
1.232092 0.800573 0
1.057900 0.855897 0
0.928051 0.877712 0
0.926017 0.770371 0
0.886797 0.593774 0
0.835913 0.337177 0
0.814558 0.043537 0
0.846052 -0.212014 0
0.842248 -0.456571 0
0.792746 -0.685024 0
0.778145 -0.823750 0
0.768883 -0.890686 0
0.749297 -0.912011 0
0.764351 -0.834493 0
0.763524 -0.669497 0
0.733013 -0.449030 0
0.705232 -0.162568 0
0.639741 0.122123 0
0.562296 0.322384 0
0.566704 0.407203 0
0.665646 0.371469 0
0.769274 0.287102 0
0.802199 0.216465 0
0.748566 0.140170 0
0.641700 0.041741 0
0.538786 -0.034337 0
0.468303 -0.037079 0
0.429936 0.021112 0
0.412121 0.082349 0
0.427045 0.108260 0
0.468432 0.107678 0
0.495398 0.098197 0
0.507643 0.100061 0
0.558026 0.158866 0
0.689703 0.252805 0
0.852446 0.240649 0
0.868575 0.034665 0
0.703115 -0.290537 0
0.639354 -0.461855 0
0.748972 -0.314014 0
0.836110 -0.045147 0
0.847155 0.180161 0
0.748194 0.399528 0
0.533687 0.627399 0
0.406774 0.736147 0
0.433631 0.661011 0
0.515921 0.512496 0
0.591607 0.367016 0
0.665052 0.248676 0
0.732997 0.170884 0
0.804775 0.092572 0
0.877233 -0.007060 0
0.941902 -0.112784 0
0.990041 -0.204708 0
1.016682 -0.263386 0
1.027491 -0.304242 0
1.037210 -0.339749 0
1.055065 -0.356110 0
1.078973 -0.337933 0
1.093353 -0.292186 0
1.084168 -0.262903 0
1.045953 -0.290291 0
0.981879 -0.361391 0
0.925128 -0.420870 0
0.915212 -0.426626 0
0.953158 -0.387373 0
1.002000 -0.338249 0
1.048218 -0.278665 0
1.068221 -0.221619 0
1.043853 -0.197320 0
1.000276 -0.161825 0
0.967154 -0.084970 0
0.946854 0.000160 0
0.928417 0.071945 0
0.904418 0.129486 0
0.881869 0.164724 0
0.849560 0.188671 0
0.791408 0.209167 0
0.782739 0.150398 0
0.780637 0.084264 0
1.000000 -0.013014 0
1.004570 -0.043024 0
0.967413 -0.076731 0
0.989877 -0.147844 0
0.878718 -0.236889 0
0.917771 -0.451248 0
0.550773 -0.543571 0
0.000000 0.001540 0
-0.602670 0.229630 0
-0.489054 0.000000 0
0.000000 0.000000 0
-0.050596 0.030759 0
-0.166644 0.051260 0
-0.032671 0.163596 0
0.381781 -0.401753 0
0.185387 -0.932567 0
0.524879 -0.424245 0
0.849443 0.191173 0
1.054488 0.568152 0
1.160908 0.744986 0
1.166100 0.844521 0
1.118246 0.915925 0
1.062499 0.944201 0
1.072411 0.901869 0
1.028167 0.835035 0
0.973110 0.678085 0
0.931755 0.371992 0
0.893862 -0.002762 0
0.922521 -0.309388 0
0.958825 -0.492939 0
0.965815 -0.641998 0
0.973002 -0.751963 0
0.971108 -0.815125 0
0.881790 -0.881786 0
0.808563 -0.828152 0
0.811436 -0.588189 0
0.760886 -0.309868 0
0.652024 -0.063508 0
0.589030 0.145364 0
0.590038 0.276451 0
0.651650 0.319154 0
0.715587 0.298747 0
0.728060 0.266631 0
0.676647 0.245243 0
0.603310 0.204269 0
0.515800 0.125082 0
0.416030 0.048424 0
0.327260 0.027644 0
0.269441 0.053628 0
0.250442 0.080848 0
0.259606 0.090629 0
0.281277 0.086699 0
0.311836 0.077950 0
0.346396 0.076824 0
0.407623 0.069517 0
0.537609 0.052178 0
0.721838 0.071095 0
0.844794 0.068523 0
0.774660 -0.110238 0
0.506852 -0.345402 0
0.329873 -0.327558 0
0.305315 -0.057935 0
0.274928 0.257677 0
0.216782 0.523983 0
0.201184 0.687496 0
0.297567 0.685041 0
0.451565 0.557860 0
0.606967 0.408236 0
0.744911 0.268095 0
0.851558 0.149013 0
0.951881 0.057912 0
1.057627 -0.014509 0
1.141394 -0.079576 0
1.192642 -0.147135 0
1.206266 -0.210389 0
1.197101 -0.264102 0
1.186177 -0.311400 0
1.175152 -0.350617 0
1.165227 -0.375285 0
1.162695 -0.379023 0
1.182575 -0.357348 0
1.230002 -0.313720 0
1.286296 -0.266839 0
1.316209 -0.252054 0
1.283953 -0.294421 0
1.198145 -0.365267 0
1.111479 -0.395628 0
1.048396 -0.367624 0
0.990099 -0.297439 0
0.936104 -0.198387 0
0.879316 -0.120267 0
0.814045 -0.083469 0
0.777444 -0.052891 0
0.780745 -0.002104 0
0.807119 0.065423 0
0.832104 0.122598 0
0.830676 0.167187 0
0.771665 0.225646 0
0.716912 0.236511 0
0.734951 0.147919 0
0.739958 0.081752 0
1.000000 -0.016486 0
0.985993 -0.017942 0
0.977398 -0.075167 0
0.939203 -0.085946 0
0.898948 -0.198588 0
0.797913 -0.147579 0
0.470275 -0.066750 0
0.378070 -0.105525 0
0.000000 0.000000 0
0.000000 0.000000 0
0.000000 0.000000 0
0.000000 0.000000 0
0.036278 -0.015927 0
0.046592 -0.171919 0
0.329579 -0.303843 0
-0.236179 -0.588648 0
-0.206234 -0.687956 0
0.194134 -0.207053 0
0.638011 0.287949 0
0.882588 0.648037 0
1.007499 0.848231 0
1.060668 0.904172 0
1.076678 0.901728 0
1.033257 0.912041 0
1.000483 0.869669 0
1.027044 0.690181 0
1.043231 0.416421 0
0.986708 0.052766 0
0.867114 -0.276983 0
0.808940 -0.499870 0
0.804621 -0.699206 0
0.841372 -0.829049 0
0.942965 -0.799479 0
0.949454 -0.749471 0
0.828377 -0.764143 0
0.790190 -0.621824 0
0.849623 -0.289621 0
0.880850 0.009285 0
0.886564 0.184106 0
0.911104 0.259761 0
0.956876 0.281652 0
0.945534 0.295057 0
0.853772 0.326041 0
0.750305 0.341214 0
0.646937 0.301017 0
0.531146 0.229021 0
0.407016 0.154204 0
0.290121 0.109512 0
0.209187 0.097932 0
0.172863 0.092186 0
0.172932 0.077427 0
0.201925 0.055450 0
0.247075 0.033081 0
0.304716 0.004278 0
0.378083 -0.032343 0
0.462130 -0.061407 0
0.559848 -0.066533 0
0.683381 -0.018152 0
0.737811 0.047409 0
0.586751 -0.017064 0
0.316637 -0.112472 0
0.135421 0.009802 0
0.077379 0.268697 0
0.127278 0.473276 0