# vtk DataFile Version 2.0
generated by CFD-lab course output (written by Tobias Neckel) 
ASCII

DATASET STRUCTURED_GRID
DIMENSIONS  101 21 1 
POINTS 2121 float

0.000000 0.000000 0
0.100000 0.000000 0
0.200000 0.000000 0
0.300000 0.000000 0
0.400000 0.000000 0
0.500000 0.000000 0
0.600000 0.000000 0
0.700000 0.000000 0
0.800000 0.000000 0
0.900000 0.000000 0
1.000000 0.000000 0
1.100000 0.000000 0
1.200000 0.000000 0
1.300000 0.000000 0
1.400000 0.000000 0
1.500000 0.000000 0
1.600000 0.000000 0
1.700000 0.000000 0
1.800000 0.000000 0
1.900000 0.000000 0
2.000000 0.000000 0
2.100000 0.000000 0
2.200000 0.000000 0
2.300000 0.000000 0
2.400000 0.000000 0
2.500000 0.000000 0
2.600000 0.000000 0
2.700000 0.000000 0
2.800000 0.000000 0
2.900000 0.000000 0
3.000000 0.000000 0
3.100000 0.000000 0
3.200000 0.000000 0
3.300000 0.000000 0
3.400000 0.000000 0
3.500000 0.000000 0
3.600000 0.000000 0
3.700000 0.000000 0
3.800000 0.000000 0
3.900000 0.000000 0
4.000000 0.000000 0
4.100000 0.000000 0
4.200000 0.000000 0
4.300000 0.000000 0
4.400000 0.000000 0
4.500000 0.000000 0
4.600000 0.000000 0
4.700000 0.000000 0
4.800000 0.000000 0
4.900000 0.000000 0
5.000000 0.000000 0
5.100000 0.000000 0
5.200000 0.000000 0
5.300000 0.000000 0
5.400000 0.000000 0
5.500000 0.000000 0
5.600000 0.000000 0
5.700000 0.000000 0
5.800000 0.000000 0
5.900000 0.000000 0
6.000000 0.000000 0
6.100000 0.000000 0
6.200000 0.000000 0
6.300000 0.000000 0
6.400000 0.000000 0
6.500000 0.000000 0
6.600000 0.000000 0
6.700000 0.000000 0
6.800000 0.000000 0
6.900000 0.000000 0
7.000000 0.000000 0
7.100000 0.000000 0
7.200000 0.000000 0
7.300000 0.000000 0
7.400000 0.000000 0
7.500000 0.000000 0
7.600000 0.000000 0
7.700000 0.000000 0
7.800000 0.000000 0
7.900000 0.000000 0
8.000000 0.000000 0
8.100000 0.000000 0
8.200000 0.000000 0
8.300000 0.000000 0
8.400000 0.000000 0
8.500000 0.000000 0
8.600000 0.000000 0
8.700000 0.000000 0
8.800000 0.000000 0
8.900000 0.000000 0
9.000000 0.000000 0
9.100000 0.000000 0
9.200000 0.000000 0
9.300000 0.000000 0
9.400000 0.000000 0
9.500000 0.000000 0
9.600000 0.000000 0
9.700000 0.000000 0
9.800000 0.000000 0
9.900000 0.000000 0
10.000000 0.000000 0
0.000000 0.100000 0
0.100000 0.100000 0
0.200000 0.100000 0
0.300000 0.100000 0
0.400000 0.100000 0
0.500000 0.100000 0
0.600000 0.100000 0
0.700000 0.100000 0
0.800000 0.100000 0
0.900000 0.100000 0
1.000000 0.100000 0
1.100000 0.100000 0
1.200000 0.100000 0
1.300000 0.100000 0
1.400000 0.100000 0
1.500000 0.100000 0
1.600000 0.100000 0
1.700000 0.100000 0
1.800000 0.100000 0
1.900000 0.100000 0
2.000000 0.100000 0
2.100000 0.100000 0
2.200000 0.100000 0
2.300000 0.100000 0
2.400000 0.100000 0
2.500000 0.100000 0
2.600000 0.100000 0
2.700000 0.100000 0
2.800000 0.100000 0
2.900000 0.100000 0
3.000000 0.100000 0
3.100000 0.100000 0
3.200000 0.100000 0
3.300000 0.100000 0
3.400000 0.100000 0
3.500000 0.100000 0
3.600000 0.100000 0
3.700000 0.100000 0
3.800000 0.100000 0
3.900000 0.100000 0
4.000000 0.100000 0
4.100000 0.100000 0
4.200000 0.100000 0
4.300000 0.100000 0
4.400000 0.100000 0
4.500000 0.100000 0
4.600000 0.100000 0
4.700000 0.100000 0
4.800000 0.100000 0
4.900000 0.100000 0
5.000000 0.100000 0
5.100000 0.100000 0
5.200000 0.100000 0
5.300000 0.100000 0
5.400000 0.100000 0
5.500000 0.100000 0
5.600000 0.100000 0
5.700000 0.100000 0
5.800000 0.100000 0
5.900000 0.100000 0
6.000000 0.100000 0
6.100000 0.100000 0
6.200000 0.100000 0
6.300000 0.100000 0
6.400000 0.100000 0
6.500000 0.100000 0
6.600000 0.100000 0
6.700000 0.100000 0
6.800000 0.100000 0
6.900000 0.100000 0
7.000000 0.100000 0
7.100000 0.100000 0
7.200000 0.100000 0
7.300000 0.100000 0
7.400000 0.100000 0
7.500000 0.100000 0
7.600000 0.100000 0
7.700000 0.100000 0
7.800000 0.100000 0
7.900000 0.100000 0
8.000000 0.100000 0
8.100000 0.100000 0
8.200000 0.100000 0
8.300000 0.100000 0
8.400000 0.100000 0
8.500000 0.100000 0
8.600000 0.100000 0
8.700000 0.100000 0
8.800000 0.100000 0
8.900000 0.100000 0
9.000000 0.100000 0
9.100000 0.100000 0
9.200000 0.100000 0
9.300000 0.100000 0
9.400000 0.100000 0
9.500000 0.100000 0
9.600000 0.100000 0
9.700000 0.100000 0
9.800000 0.100000 0
9.900000 0.100000 0
10.000000 0.100000 0
0.000000 0.200000 0
0.100000 0.200000 0
0.200000 0.200000 0
0.300000 0.200000 0
0.400000 0.200000 0
0.500000 0.200000 0
0.600000 0.200000 0
0.700000 0.200000 0
0.800000 0.200000 0
0.900000 0.200000 0
1.000000 0.200000 0
1.100000 0.200000 0
1.200000 0.200000 0
1.300000 0.200000 0
1.400000 0.200000 0
1.500000 0.200000 0
1.600000 0.200000 0
1.700000 0.200000 0
1.800000 0.200000 0
1.900000 0.200000 0
2.000000 0.200000 0
2.100000 0.200000 0
2.200000 0.200000 0
2.300000 0.200000 0
2.400000 0.200000 0
2.500000 0.200000 0
2.600000 0.200000 0
2.700000 0.200000 0
2.800000 0.200000 0
2.900000 0.200000 0
3.000000 0.200000 0
3.100000 0.200000 0
3.200000 0.200000 0
3.300000 0.200000 0
3.400000 0.200000 0
3.500000 0.200000 0
3.600000 0.200000 0
3.700000 0.200000 0
3.800000 0.200000 0
3.900000 0.200000 0
4.000000 0.200000 0
4.100000 0.200000 0
4.200000 0.200000 0
4.300000 0.200000 0
4.400000 0.200000 0
4.500000 0.200000 0
4.600000 0.200000 0
4.700000 0.200000 0
4.800000 0.200000 0
4.900000 0.200000 0
5.000000 0.200000 0
5.100000 0.200000 0
5.200000 0.200000 0
5.300000 0.200000 0
5.400000 0.200000 0
5.500000 0.200000 0
5.600000 0.200000 0
5.700000 0.200000 0
5.800000 0.200000 0
5.900000 0.200000 0
6.000000 0.200000 0
6.100000 0.200000 0
6.200000 0.200000 0
6.300000 0.200000 0
6.400000 0.200000 0
6.500000 0.200000 0
6.600000 0.200000 0
6.700000 0.200000 0
6.800000 0.200000 0
6.900000 0.200000 0
7.000000 0.200000 0
7.100000 0.200000 0
7.200000 0.200000 0
7.300000 0.200000 0
7.400000 0.200000 0
7.500000 0.200000 0
7.600000 0.200000 0
7.700000 0.200000 0
7.800000 0.200000 0
7.900000 0.200000 0
8.000000 0.200000 0
8.100000 0.200000 0
8.200000 0.200000 0
8.300000 0.200000 0
8.400000 0.200000 0
8.500000 0.200000 0
8.600000 0.200000 0
8.700000 0.200000 0
8.800000 0.200000 0
8.900000 0.200000 0
9.000000 0.200000 0
9.100000 0.200000 0
9.200000 0.200000 0
9.300000 0.200000 0
9.400000 0.200000 0
9.500000 0.200000 0
9.600000 0.200000 0
9.700000 0.200000 0
9.800000 0.200000 0
9.900000 0.200000 0
10.000000 0.200000 0
0.000000 0.300000 0
0.100000 0.300000 0
0.200000 0.300000 0
0.300000 0.300000 0
0.400000 0.300000 0
0.500000 0.300000 0
0.600000 0.300000 0
0.700000 0.300000 0
0.800000 0.300000 0
0.900000 0.300000 0
1.000000 0.300000 0
1.100000 0.300000 0
1.200000 0.300000 0
1.300000 0.300000 0
1.400000 0.300000 0
1.500000 0.300000 0
1.600000 0.300000 0
1.700000 0.300000 0
1.800000 0.300000 0
1.900000 0.300000 0
2.000000 0.300000 0
2.100000 0.300000 0
2.200000 0.300000 0
2.300000 0.300000 0
2.400000 0.300000 0
2.500000 0.300000 0
2.600000 0.300000 0
2.700000 0.300000 0
2.800000 0.300000 0
2.900000 0.300000 0
3.000000 0.300000 0
3.100000 0.300000 0
3.200000 0.300000 0
3.300000 0.300000 0
3.400000 0.300000 0
3.500000 0.300000 0
3.600000 0.300000 0
3.700000 0.300000 0
3.800000 0.300000 0
3.900000 0.300000 0
4.000000 0.300000 0
4.100000 0.300000 0
4.200000 0.300000 0
4.300000 0.300000 0
4.400000 0.300000 0
4.500000 0.300000 0
4.600000 0.300000 0
4.700000 0.300000 0
4.800000 0.300000 0
4.900000 0.300000 0
5.000000 0.300000 0
5.100000 0.300000 0
5.200000 0.300000 0
5.300000 0.300000 0
5.400000 0.300000 0
5.500000 0.300000 0
5.600000 0.300000 0
5.700000 0.300000 0
5.800000 0.300000 0
5.900000 0.300000 0
6.000000 0.300000 0
6.100000 0.300000 0
6.200000 0.300000 0
6.300000 0.300000 0
6.400000 0.300000 0
6.500000 0.300000 0
6.600000 0.300000 0
6.700000 0.300000 0
6.800000 0.300000 0
6.900000 0.300000 0
7.000000 0.300000 0
7.100000 0.300000 0
7.200000 0.300000 0
7.300000 0.300000 0
7.400000 0.300000 0
7.500000 0.300000 0
7.600000 0.300000 0
7.700000 0.300000 0
7.800000 0.300000 0
7.900000 0.300000 0
8.000000 0.300000 0
8.100000 0.300000 0
8.200000 0.300000 0
8.300000 0.300000 0
8.400000 0.300000 0
8.500000 0.300000 0
8.600000 0.300000 0
8.700000 0.300000 0
8.800000 0.300000 0
8.900000 0.300000 0
9.000000 0.300000 0
9.100000 0.300000 0
9.200000 0.300000 0
9.300000 0.300000 0
9.400000 0.300000 0
9.500000 0.300000 0
9.600000 0.300000 0
9.700000 0.300000 0
9.800000 0.300000 0
9.900000 0.300000 0
10.000000 0.300000 0
0.000000 0.400000 0
0.100000 0.400000 0
0.200000 0.400000 0
0.300000 0.400000 0
0.400000 0.400000 0
0.500000 0.400000 0
0.600000 0.400000 0
0.700000 0.400000 0
0.800000 0.400000 0
0.900000 0.400000 0
1.000000 0.400000 0
1.100000 0.400000 0
1.200000 0.400000 0
1.300000 0.400000 0
1.400000 0.400000 0
1.500000 0.400000 0
1.600000 0.400000 0
1.700000 0.400000 0
1.800000 0.400000 0
1.900000 0.400000 0
2.000000 0.400000 0
2.100000 0.400000 0
2.200000 0.400000 0
2.300000 0.400000 0
2.400000 0.400000 0
2.500000 0.400000 0
2.600000 0.400000 0
2.700000 0.400000 0
2.800000 0.400000 0
2.900000 0.400000 0
3.000000 0.400000 0
3.100000 0.400000 0
3.200000 0.400000 0
3.300000 0.400000 0
3.400000 0.400000 0
3.500000 0.400000 0
3.600000 0.400000 0
3.700000 0.400000 0
3.800000 0.400000 0
3.900000 0.400000 0
4.000000 0.400000 0
4.100000 0.400000 0
4.200000 0.400000 0
4.300000 0.400000 0
4.400000 0.400000 0
4.500000 0.400000 0
4.600000 0.400000 0
4.700000 0.400000 0
4.800000 0.400000 0
4.900000 0.400000 0
5.000000 0.400000 0
5.100000 0.400000 0
5.200000 0.400000 0
5.300000 0.400000 0
5.400000 0.400000 0
5.500000 0.400000 0
5.600000 0.400000 0
5.700000 0.400000 0
5.800000 0.400000 0
5.900000 0.400000 0
6.000000 0.400000 0
6.100000 0.400000 0
6.200000 0.400000 0
6.300000 0.400000 0
6.400000 0.400000 0
6.500000 0.400000 0
6.600000 0.400000 0
6.700000 0.400000 0
6.800000 0.400000 0
6.900000 0.400000 0
7.000000 0.400000 0
7.100000 0.400000 0
7.200000 0.400000 0
7.300000 0.400000 0
7.400000 0.400000 0
7.500000 0.400000 0
7.600000 0.400000 0
7.700000 0.400000 0
7.800000 0.400000 0
7.900000 0.400000 0
8.000000 0.400000 0
8.100000 0.400000 0
8.200000 0.400000 0
8.300000 0.400000 0
8.400000 0.400000 0
8.500000 0.400000 0
8.600000 0.400000 0
[...]
POINT_DATA 2121 

VECTORS velocity float
0.500000 0.000000 0
0.000002 0.000000 0
0.000002 0.000000 0
-0.000007 0.000000 0
-0.000044 0.000000 0
-0.000131 0.000000 0
-0.000281 0.000000 0
-0.000495 0.000000 0
-0.000769 0.000000 0
-0.001086 0.000000 0
-0.001406 0.000000 0
-0.001688 0.000000 0
-0.001862 0.000000 0
-0.001844 0.000000 0
-0.001571 0.000000 0
-0.000952 0.000000 0
0.000041 0.000000 0
0.001265 0.000000 0
0.002540 0.000000 0
0.003727 0.000000 0
0.004715 0.000000 0
0.004952 0.000000 0
0.002016 0.000000 0
0.014434 0.000000 0
0.021097 0.000000 0
0.013869 0.000000 0
-0.006165 0.000000 0
0.000331 0.000000 0
0.005805 0.000000 0
-0.000041 0.000000 0
-0.006299 0.000000 0
-0.012302 0.000000 0
-0.018040 0.000000 0
-0.021576 0.000000 0
-0.020786 0.000000 0
-0.017270 0.000000 0
-0.021310 0.000000 0
-0.021722 0.000000 0
-0.020923 0.000000 0
-0.019305 0.000000 0
-0.018440 0.000000 0
-0.016486 0.000000 0
-0.010171 0.000000 0
-0.004390 0.000000 0
-0.000187 0.000000 0
0.007004 0.000000 0
0.016071 0.000000 0
0.023443 0.000000 0
0.027004 0.000000 0
0.025074 0.000000 0
0.019086 0.000000 0
0.012553 0.000000 0
0.007629 0.000000 0
0.004702 0.000000 0
0.003245 0.000000 0
0.002523 0.000000 0
0.002701 0.000000 0
0.003325 0.000000 0
0.000769 0.000000 0
-0.001580 0.000000 0
0.011313 0.000000 0
0.019487 0.000000 0
0.016768 0.000000 0
0.007895 0.000000 0
-0.000410 0.000000 0
-0.007571 0.000000 0
-0.006836 0.000000 0
-0.007773 0.000000 0
-0.006220 0.000000 0
-0.003715 0.000000 0
-0.001822 0.000000 0
0.000274 0.000000 0
0.002715 0.000000 0
0.004365 0.000000 0
0.004220 0.000000 0
0.003251 0.000000 0
0.002223 0.000000 0
0.000911 0.000000 0
-0.001006 0.000000 0
-0.003248 0.000000 0
-0.005527 0.000000 0
-0.007550 0.000000 0
-0.008840 0.000000 0
-0.009367 0.000000 0
-0.009373 0.000000 0
-0.008903 0.000000 0
-0.007998 0.000000 0
-0.007039 0.000000 0
-0.006632 0.000000 0
-0.006658 0.000000 0
-0.006657 0.000000 0
-0.006608 0.000000 0
-0.006551 0.000000 0
-0.006435 0.000000 0
-0.006199 0.000000 0
-0.005809 0.000000 0
-0.005293 0.000000 0
-0.004738 0.000000 0
-0.004054 0.000000 0
-0.003388 0.000000 0
-0.002920 0.000000 0
1.000000 -0.003132 0
1.006823 -0.009819 0
1.020936 -0.017218 0
1.042899 -0.025082 0
1.073257 -0.032993 0
1.112026 -0.040048 0
1.157941 -0.044851 0
1.208054 -0.045703 0
1.256173 -0.042124 0
1.297710 -0.035529 0
1.330799 -0.027743 0
1.355382 -0.020110 0
1.372307 -0.013452 0
1.383038 -0.008221 0
1.389806 -0.004048 0
1.394173 0.001090 0
1.393237 0.009740 0
1.381052 0.022520 0
1.353497 0.038075 0
1.308516 0.054429 0
1.247063 0.070128 0
1.173666 0.076155 0
1.086309 0.069485 0
0.955143 0.177945 0
0.829506 0.339486 0
0.745407 0.308294 0
0.670707 0.109998 0
0.396311 0.020509 0
0.178014 0.022955 0
0.136119 -0.045743 0
0.176885 -0.108711 0
0.248379 -0.144751 0
0.352660 -0.170424 0
0.499109 -0.185322 0
0.688365 -0.179694 0
0.893012 -0.164236 0
1.073364 -0.165597 0
1.241206 -0.172960 0
1.412519 -0.165989 0
1.571300 -0.150326 0
1.704503 -0.133479 0
1.811633 -0.109334 0
1.890747 -0.068752 0
1.936575 -0.026581 0
1.948202 0.006485 0
1.923658 0.047517 0
1.858871 0.097692 0
1.758234 0.138690 0
1.636078 0.158739 0
1.513398 0.151230 0
1.408191 0.122016 0
1.326634 0.087942 0
1.265164 0.061770 0
1.216470 0.046846 0
1.173696 0.039896 0
1.132241 0.036188 0
1.090044 0.041891 0
1.047091 0.045215 0
1.011148 0.012517 0
0.981009 0.019277 0
0.926705 0.143497 0
0.832908 0.256764 0
0.717950 0.237738 0
0.630861 0.128535 0
0.597342 0.001294 0
0.586247 -0.082152 0
0.544076 -0.103715 0
0.531517 -0.105394 0
0.586597 -0.089941 0
0.617821 -0.055217 0
0.620726 -0.023620 0
0.602328 0.005674 0
0.560083 0.033751 0
0.500094 0.049474 0
0.442407 0.046552 0
0.398292 0.036715 0
0.361830 0.031117 0
0.330415 0.025643 0
0.313288 0.011741 0
0.320420 -0.010304 0
0.351335 -0.035854 0
0.405698 -0.060028 0
0.480739 -0.076747 0
0.565695 -0.084016 0
0.651958 -0.084527 0
0.739129 -0.080844 0
0.825299 -0.073648 0
0.904635 -0.065561 0
0.977362 -0.061912 0
1.042412 -0.061380 0
1.103259 -0.059931 0
1.161387 -0.058163 0
1.217558 -0.056281 0
1.271745 -0.053930 0
1.323335 -0.050597 0
1.371118 -0.045909 0
1.413555 -0.039998 0
1.449344 -0.033079 0
1.477327 -0.024534 0
1.497472 -0.013251 0
1.503724 -0.006323 0
1.000000 -0.006835 0
1.006949 -0.020953 0
1.021372 -0.036086 0
1.043988 -0.052332 0
1.076066 -0.069139 0
1.118608 -0.084696 0
1.170995 -0.096040 0
1.231906 -0.098245 0
1.288775 -0.089669 0
1.335237 -0.074640 0
1.370582 -0.057685 0
1.395805 -0.041521 0
1.412076 -0.027669 0
1.420989 -0.017513 0
1.427007 -0.011148 0
1.436583 -0.003443 0
1.445014 0.013110 0
1.439713 0.039729 0
1.415894 0.072525 0
1.371438 0.106424 0
1.308495 0.134841 0
1.228652 0.160746 0
1.123393 0.218514 0
0.986688 0.256795 0
0.941399 0.209729 0
1.004325 0.158792 0
0.924761 0.349089 0
0.582891 0.492685 0
0.440461 0.260185 0
0.404057 0.001122 0
0.350203 -0.112269 0
0.289656 -0.175785 0
0.274711 -0.250739 0
0.326439 -0.335714 0
0.458790 -0.393913 0
0.671168 -0.385010 0
0.910850 -0.348204 0
1.099228 -0.339165 0
1.253056 -0.330104 0
1.396599 -0.291995 0
1.511948 -0.240343 0
1.598635 -0.186253 0
1.665046 -0.124951 0
1.702406 -0.057464 0
1.696329 0.012909 0
1.652168 0.089324 0
1.591687 0.165418 0
1.527945 0.222788 0
1.472730 0.244831 0
1.431062 0.227884 0
1.397235 0.186761 0
1.364089 0.143025 0
1.328535 0.110163 0
1.290732 0.091468 0
1.251135 0.084230 0
1.208495 0.083653 0
1.161441 0.085152 0
1.120649 0.078899 0
1.083515 0.066086 0
1.028070 0.084447 0
1.004200 0.148106 0
1.058366 0.208761 0
1.131308 0.202052 0
1.170121 0.120613 0
1.155906 0.044620 0
1.078364 0.053272 0
0.972861 0.054736 0
0.869668 -0.042516 0
0.717135 -0.086299 0
0.598455 -0.034124 0
0.556233 0.015497 0
0.529148 0.060647 0
0.479160 0.102238 0
0.415971 0.117678 0
0.361372 0.101803 0
0.324783 0.080577 0
0.294093 0.067877 0
0.272789 0.048541 0
0.277925 0.009992 0
0.313648 -0.038051 0
0.366388 -0.085283 0
0.430065 -0.129409 0
0.502970 -0.160004 0
0.582600 -0.171227 0
0.661267 -0.173442 0
0.739110 -0.173350 0
0.822969 -0.165516 0
0.906758 -0.152074 0
0.984904 -0.137789 0
1.048773 -0.125909 0
1.105874 -0.118987 0
1.159835 -0.114312 0
1.211549 -0.110372 0
1.261220 -0.105792 0
1.308534 -0.099387 0
1.352300 -0.090234 0
1.390698 -0.078241 0
1.421811 -0.063787 0
1.444648 -0.048143 0
1.461424 -0.026412 0
1.465396 -0.011614 0
1.000000 -0.010089 0
1.005522 -0.031201 0
1.018687 -0.054260 0
1.040025 -0.079780 0
1.072476 -0.107618 0
1.118951 -0.134982 0
1.180021 -0.158154 0
1.265118 -0.163488 0
1.337355 -0.145460 0
1.388668 -0.117341 0
1.424488 -0.088316 0
1.448444 -0.061609 0
1.460491 -0.038640 0
1.460440 -0.023156 0
1.457759 -0.019646 0
1.470198 -0.016920 0
1.498717 0.006607 0
1.513732 0.051637 0
1.495996 0.106347 0
1.444394 0.161826 0
1.374074 0.212912 0
1.293033 0.261255 0
1.207134 0.311447 0
1.143137 0.359937 0
1.066004 0.321848 0
0.932654 0.324930 0
0.622923 0.531430 0
0.580291 0.504807 0
0.631496 0.201786 0
0.534273 0.044512 0
0.426331 0.005686 0
0.364680 -0.069262 0
0.361788 -0.207210 0
0.383303 -0.369406 0
0.424476 -0.524427 0
0.523668 -0.616300 0
0.720435 -0.593661 0
0.941442 -0.515170 0
1.088041 -0.463365 0
1.204111 -0.409223 0
1.287882 -0.335518 0
1.339450 -0.262435 0
1.390851 -0.172526 0
1.423899 -0.057867 0
1.411580 0.056720 0
1.358233 0.152157 0
1.297362 0.221913 0
1.259077 0.257645 0
1.263874 0.255620 0
1.295140 0.226723 0
1.327043 0.188989 0
1.342915 0.156642 0
1.337770 0.135127 0
1.313550 0.124247 0
1.272822 0.122134 0
1.217660 0.125884 0
1.155739 0.129737 0
1.100450 0.123142 0
1.066637 0.105098 0
1.061724 0.098594 0
1.082919 0.113204 0
1.151536 0.129658 0
1.245547 0.125986 0
1.309643 0.103940 0
1.305138 0.093053 0
1.255131 0.100894 0
1.214764 0.104984 0
1.122652 0.150335 0
0.931989 0.181274 0
0.761262 0.105686 0
0.671289 0.045688 0
0.618352 0.082748 0
0.550689 0.146929 0
0.494452 0.167263 0
0.456049 0.137741 0
0.424351 0.103995 0
0.405011 0.083110 0
0.412247 0.041809 0
0.446966 -0.029119 0
0.500005 -0.098767 0
0.563070 -0.152271 0
0.628801 -0.196612 0
0.690013 -0.229285 0
0.748002 -0.242315 0
0.813509 -0.241039 0
0.877898 -0.242548 0
0.930767 -0.241299 0
0.982907 -0.227499 0
1.033711 -0.203930 0
1.082759 -0.182353 0
1.130919 -0.170997 0
1.178510 -0.163842 0
1.223744 -0.157669 0
1.266131 -0.150919 0
1.305601 -0.141681 0
1.341104 -0.128077 0
1.370944 -0.109513 0
1.393102 -0.087032 0
1.406692 -0.064151 0
1.411287 -0.034003 0
1.409949 -0.013434 0
1.000000 -0.012364 0
1.001607 -0.039649 0
1.013219 -0.070593 0
1.030734 -0.106124 0
1.061736 -0.148068 0
1.110366 -0.192245 0
1.180836 -0.242212 0
1.324515 -0.255584 0
1.416463 -0.213223 0
1.461465 -0.161777 0
1.484243 -0.117465 0
1.501915 -0.077529 0
1.510095 -0.039670 0
1.492389 -0.014783 0
1.464600 -0.020909 0
1.470630 -0.044404 0
1.540096 -0.030426 0
1.598548 0.042447 0
1.608419 0.141862 0
1.556498 0.228345 0
1.459334 0.286201 0
1.349682 0.327684 0
1.253686 0.368408 0
1.185202 0.397924 0
1.136570 0.420211 0
0.948301 0.601871 0
0.725532 0.701449 0
0.727141 0.484110 0
0.636659 0.306200 0
0.456764 0.206283 0
0.383470 0.057321 0
0.425180 -0.111244 0
0.518255 -0.269366 0
0.611552 -0.398407 0
0.665259 -0.534283 0
0.686522 -0.680973 0
0.720951 -0.765982 0
0.842050 -0.706774 0
0.983737 -0.592777 0
1.074959 -0.491840 0
1.128832 -0.375686 0
1.093060 -0.289225 0
1.016361 -0.209404 0
1.003337 -0.078195 0
1.028168 0.078572 0
1.033926 0.203538 0
1.028056 0.264573 0
1.051847 0.256275 0
1.111847 0.208766 0
1.195040 0.164714 0
1.268822 0.138986 0
1.316276 0.132298 0
1.337063 0.139529 0
1.339480 0.156416 0
1.325012 0.180120 0
1.286100 0.200737 0
1.217216 0.202364 0
1.127545 0.168003 0
1.046651 0.104813 0
0.998630 0.068167 0
1.036829 0.058296 0
1.125200 0.046135 0
1.232997 0.043948 0
1.321488 0.061024 0
1.354837 0.099134 0
1.343662 0.143649 0
1.293446 0.187217 0
1.190890 0.240261 0
1.100162 0.275094 0
1.015648 0.226579 0
0.922174 0.158408 0
0.786150 0.181248 0
0.669768 0.226139 0
0.613803 0.212319 0
0.586348 0.171905 0
0.560788 0.131615 0
0.555312 0.079981 0
0.580366 0.006586 0
0.623354 -0.077766 0
0.671979 -0.154156 0
0.727864 -0.214079 0
0.781880 -0.256354 0
0.827439 -0.279206 0
0.866301 -0.294724 0
0.906274 -0.303340 0
0.948279 -0.290610 0
0.984027 -0.270527 0
1.017107 -0.255020 0
1.051260 -0.237643 0
1.092745 -0.223119 0
1.138853 -0.214740 0
1.188223 -0.207140 0
1.234893 -0.197996 0
1.276679 -0.187651 0
1.312986 -0.174362 0
1.341464 -0.155580 0
1.361030 -0.130242 0
1.371089 -0.099537 0
1.371364 -0.066330 0
1.359652 -0.029672 0
1.352193 -0.007865 0
1.000000 -0.011703 0
1.001055 -0.044429 0
1.007681 -0.083390 0
1.012141 -0.128300 0
1.040600 -0.187253 0
1.082148 -0.254084 0
1.165418 -0.372306 0
1.422846 -0.399119 0
1.499376 -0.282414 0
1.497289 -0.185124 0
1.479288 -0.128770 0
1.469531 -0.087465 0
1.481472 -0.029117 0
1.437502 0.022337 0
1.346845 0.002111 0
1.306693 -0.092419 0
1.436298 -0.121313 0
1.562099 -0.016687 0
1.645698 0.148397 0
1.654343 0.310910 0
1.588013 0.419727 0
1.468599 0.466902 0
1.328104 0.475926 0
1.205636 0.477052 0
1.088382 0.558747 0
0.935491 0.735966 0
0.921326 0.752588 0
0.894727 0.593678 0
0.739867 0.472161 0
0.637906 0.297698 0
0.601674 0.037267 0
0.592121 -0.204051 0
0.626642 -0.393587 0
0.715561 -0.516414 0
0.798697 -0.599401 0
0.859111 -0.671997 0
0.879715 -0.749192 0
0.878531 -0.777960 0
0.931315 -0.696278 0
0.953955 -0.554322 0
0.950192 -0.353623 0
0.942648 -0.149968 0
0.881166 -0.082807 0
0.772346 -0.069677 0
0.672431 0.026129 0
0.632752 0.152267 0
0.663427 0.203991 0
0.753292 0.173852 0
0.864297 0.112425 0
0.971230 0.069747 0
1.064543 0.067752 0
1.128708 0.088401 0
1.146857 0.111923 0
1.140801 0.136298 0
1.147904 0.175514 0
1.168152 0.233680 0
1.165569 0.288293 0
1.087375 0.293709 0
0.907580 0.234015 0
0.757568 0.108418 0
0.786294 -0.013365 0
0.963266 -0.066507 0
1.128707 -0.070299 0
1.256791 -0.017898 0
1.312083 0.070881 0
1.308591 0.162288 0
1.250340 0.257758 0
1.160952 0.343621 0
1.107751 0.356518 0
1.101200 0.283676 0
1.005783 0.275188 0
0.821845 0.335155 0
0.723885 0.319277 0
0.683500 0.250684 0
0.651958 0.190757 0
0.631137 0.135032 0
0.638295 0.063533 0
0.672774 -0.026233 0
0.718663 -0.120732 0
0.759973 -0.203277 0
0.793067 -0.262172 0
0.821496 -0.296188 0
0.845373 -0.313707 0
0.865102 -0.321151 0
0.872253 -0.323018 0
0.876960 -0.320302 0
0.895521 -0.310128 0
0.925369 -0.294733 0
0.963918 -0.279570 0
1.010648 -0.269948 0
1.059387 -0.266476 0
1.109870 -0.259883 0
1.162994 -0.246125 0
1.214882 -0.229013 0
1.263892 -0.206467 0
1.299952 -0.176122 0
1.319817 -0.139140 0
1.324455 -0.097368 0
1.319477 -0.052715 0
1.310050 -0.014833 0
1.303763 0.002669 0
1.000000 -0.013425 0
1.002130 -0.047337 0
1.001701 -0.081682 0
0.991080 -0.139046 0
1.014735 -0.218077 0
1.017753 -0.317066 0
1.127271 -0.582913 0
1.460125 -0.589546 0
1.369250 -0.287671 0
1.258114 -0.141692 0
1.187719 -0.089710 0
1.070746 -0.079715 0
1.063317 -0.007643 0
1.123909 0.119842 0
1.026317 0.109898 0
0.619748 -0.133858 0
0.846343 -0.285833 0
1.173022 -0.166953 0
1.371516 0.049617 0
1.454640 0.286029 0
1.505941 0.471944 0
1.494502 0.587593 0
1.419263 0.631372 0
1.293127 0.637645 0
1.135431 0.690354 0
1.039172 0.768926 0
1.067127 0.742212 0
1.060035 0.665567 0
1.004007 0.563018 0
0.957502 0.344474 0
0.867914 0.103103 0
0.791163 -0.136216 0
0.753238 -0.392809 0
0.767890 -0.570465 0
0.794278 -0.677837 0
0.808958 -0.761995 0
0.866946 -0.785405 0
0.889021 -0.758379 0
0.869905 -0.668206 0
0.881185 -0.510721 0
0.881554 -0.364382 0
0.885423 -0.220203 0
0.850911 -0.039105 0
0.717864 0.130537 0
0.574152 0.218163 0
0.526417 0.212540 0
0.574650 0.144031 0
0.652672 0.055402 0
0.725543 -0.009173 0
0.776199 -0.035533 0
0.805995 -0.018493 0
0.820526 0.049984 0
0.815084 0.127435 0
0.801389 0.155369 0
0.811223 0.152769 0
0.860562 0.183073 0
0.911801 0.283142 0
0.898373 0.425992 0
0.814415 0.434622 0
0.712897 0.189455 0
0.647895 -0.147401 0
0.752485 -0.296276 0
0.976206 -0.249575 0
1.153486 -0.122350 0
1.210233 0.047337 0
1.211879 0.205395 0
1.186629 0.334859 0
1.187301 0.382852 0
1.203680 0.334848 0
1.116619 0.328548 0
0.932403 0.437764 0
0.821415 0.463149 0
0.778522 0.364486 0
0.739919 0.284247 0
0.708565 0.224269 0
0.713229 0.145279 0
0.758046 0.038345 0
0.821847 -0.073780 0
0.868884 -0.164964 0
0.898219 -0.228559 0
0.915934 -0.275602 0
0.929552 -0.308660 0
0.945429 -0.322812 0
0.963709 -0.321603 0
0.982118 -0.315198 0
0.996691 -0.313879 0
1.008256 -0.318936 0
1.016418 -0.323417 0
1.016400 -0.322922 0
1.014679 -0.318588 0
1.021164 -0.313963 0
1.037369 -0.310747 0
1.063343 -0.303007 0
1.094429 -0.288548 0
1.138357 -0.259433 0
1.174686 -0.211506 0
1.198774 -0.154745 0
1.204678 -0.099197 0
1.203124 -0.051925 0
1.191920 -0.013958 0
1.186055 0.005202 0
1.000000 -0.013839 0
1.000021 -0.046136 0
0.990121 -0.072342 0
0.982392 -0.141336 0
0.969610 -0.213928 0
0.932939 -0.366623 0
1.019028 -0.814681 0
0.718687 -0.560694 0
0.001640 0.000000 0
0.002994 0.000000 0
0.464099 0.062192 0
0.416311 0.036935 0
0.352464 -0.082282 0
0.574902 0.059335 0
0.054981 0.506271 0
-0.050287 0.087555 0
-0.005849 -0.674587 0
0.342291 -0.541861 0
0.745011 -0.133221 0
1.045579 0.176485 0
1.199622 0.379865 0
1.270904 0.553580 0
1.312209 0.677301 0
1.288232 0.760883 0
1.224825 0.812701 0
1.208904 0.804270 0
1.234899 0.731724 0
1.203286 0.656796 0
1.132327 0.574692 0
0.985002 0.433789 0
0.871198 0.203604 0
0.835551 -0.089378 0
0.761756 -0.370318 0
0.692399 -0.557457 0
0.701228 -0.640472 0
0.697578 -0.744668 0
0.699589 -0.829260 0
0.782462 -0.780924 0
0.797705 -0.688446 0
0.735211 -0.565975 0
0.694678 -0.357865 0
0.652804 -0.119329 0
0.594236 0.084749 0
0.562623 0.207080 0
0.584580 0.217573 0
0.631431 0.151766 0
0.664381 0.077734 0
0.667901 0.022957 0
0.658120 -0.011103 0
0.639342 -0.010707 0
0.602762 0.023424 0
0.562960 0.079311 0
0.544677 0.131060 0
0.547874 0.140160 0
0.545864 0.116341 0
0.552361 0.133102 0
0.593225 0.250483 0
0.678321 0.391097 0
0.800642 0.419493 0
0.856552 0.274939 0
0.803758 -0.052950 0
0.686601 -0.394815 0
0.722229 -0.471299 0
0.873234 -0.251924 0
0.990729 0.012491 0
1.063293 0.185895 0
1.100453 0.282338 0
1.099525 0.326571 0
1.014033 0.427202 0
0.840990 0.554955 0
0.721805 0.570395 0
0.716298 0.489039 0
0.716565 0.400774 0
0.736303 0.320643 0
0.802697 0.217449 0
0.882219 0.085553 0
0.952167 -0.045084 0
1.006486 -0.137070 0
1.040143 -0.197103 0
1.060740 -0.250326 0
1.074022 -0.293504 0
1.078641 -0.325681 0
1.081142 -0.347863 0
1.089018 -0.357839 0
1.108369 -0.355999 0
1.140854 -0.346440 0
1.189704 -0.329854 0
1.252415 -0.302876 0
1.295988 -0.277829 0
1.287632 -0.274710 0
1.230187 -0.289165 0
1.154807 -0.302061 0
1.092576 -0.303185 0
1.047413 -0.304026 0
1.000471 -0.286723 0
0.979022 -0.236538 0
0.978795 -0.169132 0
0.979779 -0.101716 0
0.982647 -0.039955 0
0.976546 0.002237 0
0.970549 0.015194 0
1.000000 -0.013450 0
1.008609 -0.037464 0
0.969686 -0.064054 0
0.986388 -0.118535 0
0.891047 -0.168626 0
0.891248 -0.366485 0
0.666621 -0.449069 0
0.000000 0.002438 0
-0.600557 0.175153 0
-0.508428 0.000000 0
0.000000 0.000000 0
0.053196 0.022923 0
0.035049 -0.166235 0
0.001289 0.417324 0
-0.243443 0.735087 0
0.055434 -0.073028 0
-0.388772 -0.678411 0
-0.402909 -0.917813 0
-0.076626 -0.653670 0
0.502411 -0.168581 0
0.825044 0.246620 0
1.024083 0.475006 0
1.138249 0.614043 0
1.198593 0.725028 0
1.244047 0.769683 0
1.275936 0.758852 0
1.259608 0.747828 0
1.189656 0.768137 0
1.094420 0.781300 0
1.002363 0.605601 0
0.951423 0.252551 0
0.840309 -0.026776 0
0.682260 -0.249661 0
0.541790 -0.509942 0
0.518321 -0.683019 0
0.591493 -0.760360 0
0.592305 -0.870293 0
0.616299 -0.856498 0
0.738492 -0.620959 0
0.771473 -0.407698 0
0.677322 -0.281979 0
0.567262 -0.119764 0
0.512802 0.051073 0
0.525111 0.140190 0
0.559054 0.149352 0
0.558133 0.132737 0
0.526006 0.107559 0
0.499415 0.061661 0
0.488111 0.019385 0
0.465991 0.019824 0
0.426324 0.057888 0
0.381287 0.108068 0
0.353651 0.142521 0
0.338091 0.154183 0
0.319550 0.148283 0
0.304467 0.135712 0
0.332772 0.157183 0
0.458814 0.218576 0
0.662310 0.256393 0
0.842940 0.186341 0
0.853293 0.022551 0
0.655458 -0.214745 0
0.456393 -0.436205 0
0.433438 -0.390848 0
0.537471 -0.142720 0
0.622291 0.095673 0
0.646250 0.298629 0
0.591609 0.469275 0
0.494347 0.593385 0
0.473178 0.620779 0
0.537881 0.562458 0
0.627817 0.468391 0
0.739029 0.344483 0
0.860210 0.198117 0
0.976644 0.078355 0
1.075771 -0.004188 0
1.144377 -0.085920 0
1.184067 -0.161755 0
1.211795 -0.219216 0
1.222726 -0.262437 0
1.216093 -0.293502 0
1.197625 -0.315777 0
1.171819 -0.333187 0
1.141999 -0.348829 0
1.111036 -0.367032 0
1.085881 -0.395211 0
1.084888 -0.430495 0
1.155182 -0.429699 0
1.251064 -0.358138 0
1.317569 -0.252785 0
1.322986 -0.181136 0
1.265067 -0.173134 0
1.161147 -0.195611 0
1.038802 -0.196441 0
0.921283 -0.191040 0
0.850820 -0.189828 0
0.832755 -0.155500 0
0.860038 -0.103046 0
0.878923 -0.048690 0
0.858605 -0.001858 0
0.850938 0.018272 0
1.000000 -0.022452 0
0.980790 -0.015826 0
0.978051 -0.050122 0
0.946505 -0.062698 0
0.880916 -0.118789 0
0.837624 -0.142197 0
0.483036 0.001777 0
0.375373 0.031135 0
0.000000 0.000000 0
0.000000 0.000000 0
0.000000 0.000000 0
0.000000 0.000000 0
0.030033 -0.023265 0
-0.170483 0.337827 0
0.110202 0.452127 0
-0.056560 0.232886 0
-0.314035 -0.216243 0
-0.542765 -0.854007 0
-0.477619 -1.038540 0
-0.106794 -0.725182 0
0.410925 -0.141806 0
0.758312 0.240376 0
0.937016 0.502792 0
1.023384 0.655085 0
1.086575 0.735358 0
1.115342 0.788708 0
1.118090 0.818003 0
1.114620 0.821983 0
1.127354 0.761983 0
1.177415 0.576783 0
1.143138 0.365655 0
1.030771 0.179781 0
0.961317 -0.071802 0
0.920274 -0.393521 0
0.850212 -0.690179 0
0.808508 -0.818656 0
0.795996 -0.854070 0
0.702493 -0.927115 0
0.683118 -0.843624 0
0.820394 -0.504809 0
0.871032 -0.153657 0
0.808131 0.045188 0
0.751705 0.126897 0
0.732257 0.160825 0
0.716083 0.184549 0
0.704158 0.184813 0
0.725231 0.136449 0
0.689612 0.060850 0
0.572402 0.022319 0
0.445678 0.051079 0
0.355134 0.108128 0
0.292216 0.151984 0
0.251237 0.174256 0
0.224211 0.174261 0
0.215476 0.149966 0
0.220910 0.119881 0
0.245014 0.096137 0
0.325939 0.061560 0
0.476119 0.035368 0
0.640884 0.083958 0
0.710251 0.134534 0
0.664661 0.002086 0