# vtk DataFile Version 2.0
generated by CFD-lab course output (written by Tobias Neckel) 
ASCII

DATASET STRUCTURED_GRID
DIMENSIONS  101 21 1 
POINTS 2121 float

0.000000 0.000000 0
0.100000 0.000000 0
0.200000 0.000000 0
0.300000 0.000000 0
0.400000 0.000000 0
0.500000 0.000000 0
0.600000 0.000000 0
0.700000 0.000000 0
0.800000 0.000000 0
0.900000 0.000000 0
1.000000 0.000000 0
1.100000 0.000000 0
1.200000 0.000000 0
1.300000 0.000000 0
1.400000 0.000000 0
1.500000 0.000000 0
1.600000 0.000000 0
1.700000 0.000000 0
1.800000 0.000000 0
1.900000 0.000000 0
2.000000 0.000000 0
2.100000 0.000000 0
2.200000 0.000000 0
2.300000 0.000000 0
2.400000 0.000000 0
2.500000 0.000000 0
2.600000 0.000000 0
2.700000 0.000000 0
2.800000 0.000000 0
2.900000 0.000000 0
3.000000 0.000000 0
3.100000 0.000000 0
3.200000 0.000000 0
3.300000 0.000000 0
3.400000 0.000000 0
3.500000 0.000000 0
3.600000 0.000000 0
3.700000 0.000000 0
3.800000 0.000000 0
3.900000 0.000000 0
4.000000 0.000000 0
4.100000 0.000000 0
4.200000 0.000000 0
4.300000 0.000000 0
4.400000 0.000000 0
4.500000 0.000000 0
4.600000 0.000000 0
4.700000 0.000000 0
4.800000 0.000000 0
4.900000 0.000000 0
5.000000 0.000000 0
5.100000 0.000000 0
5.200000 0.000000 0
5.300000 0.000000 0
5.400000 0.000000 0
5.500000 0.000000 0
5.600000 0.000000 0
5.700000 0.000000 0
5.800000 0.000000 0
5.900000 0.000000 0
6.000000 0.000000 0
6.100000 0.000000 0
6.200000 0.000000 0
6.300000 0.000000 0
6.400000 0.000000 0
6.500000 0.000000 0
6.600000 0.000000 0
6.700000 0.000000 0
6.800000 0.000000 0
6.900000 0.000000 0
7.000000 0.000000 0
7.100000 0.000000 0
7.200000 0.000000 0
7.300000 0.000000 0
7.400000 0.000000 0
7.500000 0.000000 0
7.600000 0.000000 0
7.700000 0.000000 0
7.800000 0.000000 0
7.900000 0.000000 0
8.000000 0.000000 0
8.100000 0.000000 0
8.200000 0.000000 0
8.300000 0.000000 0
8.400000 0.000000 0
8.500000 0.000000 0
8.600000 0.000000 0
8.700000 0.000000 0
8.800000 0.000000 0
8.900000 0.000000 0
9.000000 0.000000 0
9.100000 0.000000 0
9.200000 0.000000 0
9.300000 0.000000 0
9.400000 0.000000 0
9.500000 0.000000 0
9.600000 0.000000 0
9.700000 0.000000 0
9.800000 0.000000 0
9.900000 0.000000 0
10.000000 0.000000 0
0.000000 0.100000 0
0.100000 0.100000 0
0.200000 0.100000 0
0.300000 0.100000 0
0.400000 0.100000 0
0.500000 0.100000 0
0.600000 0.100000 0
0.700000 0.100000 0
0.800000 0.100000 0
0.900000 0.100000 0
1.000000 0.100000 0
1.100000 0.100000 0
1.200000 0.100000 0
1.300000 0.100000 0
1.400000 0.100000 0
1.500000 0.100000 0
1.600000 0.100000 0
1.700000 0.100000 0
1.800000 0.100000 0
1.900000 0.100000 0
2.000000 0.100000 0
2.100000 0.100000 0
2.200000 0.100000 0
2.300000 0.100000 0
2.400000 0.100000 0
2.500000 0.100000 0
2.600000 0.100000 0
2.700000 0.100000 0
2.800000 0.100000 0
2.900000 0.100000 0
3.000000 0.100000 0
3.100000 0.100000 0
3.200000 0.100000 0
3.300000 0.100000 0
3.400000 0.100000 0
3.500000 0.100000 0
3.600000 0.100000 0
3.700000 0.100000 0
3.800000 0.100000 0
3.900000 0.100000 0
4.000000 0.100000 0
4.100000 0.100000 0
4.200000 0.100000 0
4.300000 0.100000 0
4.400000 0.100000 0
4.500000 0.100000 0
4.600000 0.100000 0
4.700000 0.100000 0
4.800000 0.100000 0
4.900000 0.100000 0
5.000000 0.100000 0
5.100000 0.100000 0
5.200000 0.100000 0
5.300000 0.100000 0
5.400000 0.100000 0
5.500000 0.100000 0
5.600000 0.100000 0
5.700000 0.100000 0
5.800000 0.100000 0
5.900000 0.100000 0
6.000000 0.100000 0
6.100000 0.100000 0
6.200000 0.100000 0
6.300000 0.100000 0
6.400000 0.100000 0
6.500000 0.100000 0
6.600000 0.100000 0
6.700000 0.100000 0
6.800000 0.100000 0
6.900000 0.100000 0
7.000000 0.100000 0
7.100000 0.100000 0
7.200000 0.100000 0
7.300000 0.100000 0
7.400000 0.100000 0
7.500000 0.100000 0
7.600000 0.100000 0
7.700000 0.100000 0
7.800000 0.100000 0
7.900000 0.100000 0
8.000000 0.100000 0
8.100000 0.100000 0
8.200000 0.100000 0
8.300000 0.100000 0
8.400000 0.100000 0
8.500000 0.100000 0
8.600000 0.100000 0
8.700000 0.100000 0
8.800000 0.100000 0
8.900000 0.100000 0
9.000000 0.100000 0
9.100000 0.100000 0
9.200000 0.100000 0
9.300000 0.100000 0
9.400000 0.100000 0
9.500000 0.100000 0
9.600000 0.100000 0
9.700000 0.100000 0
9.800000 0.100000 0
9.900000 0.100000 0
10.000000 0.100000 0
0.000000 0.200000 0
0.100000 0.200000 0
0.200000 0.200000 0
0.300000 0.200000 0
0.400000 0.200000 0
0.500000 0.200000 0
0.600000 0.200000 0
0.700000 0.200000 0
0.800000 0.200000 0
0.900000 0.200000 0
1.000000 0.200000 0
1.100000 0.200000 0
1.200000 0.200000 0
1.300000 0.200000 0
1.400000 0.200000 0
1.500000 0.200000 0
1.600000 0.200000 0
1.700000 0.200000 0
1.800000 0.200000 0
1.900000 0.200000 0
2.000000 0.200000 0
2.100000 0.200000 0
2.200000 0.200000 0
2.300000 0.200000 0
2.400000 0.200000 0
2.500000 0.200000 0
2.600000 0.200000 0
2.700000 0.200000 0
2.800000 0.200000 0
2.900000 0.200000 0
3.000000 0.200000 0
3.100000 0.200000 0
3.200000 0.200000 0
3.300000 0.200000 0
3.400000 0.200000 0
3.500000 0.200000 0
3.600000 0.200000 0
3.700000 0.200000 0
3.800000 0.200000 0
3.900000 0.200000 0
4.000000 0.200000 0
4.100000 0.200000 0
4.200000 0.200000 0
4.300000 0.200000 0
4.400000 0.200000 0
4.500000 0.200000 0
4.600000 0.200000 0
4.700000 0.200000 0
4.800000 0.200000 0
4.900000 0.200000 0
5.000000 0.200000 0
5.100000 0.200000 0
5.200000 0.200000 0
5.300000 0.200000 0
5.400000 0.200000 0
5.500000 0.200000 0
5.600000 0.200000 0
5.700000 0.200000 0
5.800000 0.200000 0
5.900000 0.200000 0
6.000000 0.200000 0
6.100000 0.200000 0
6.200000 0.200000 0
6.300000 0.200000 0
6.400000 0.200000 0
6.500000 0.200000 0
6.600000 0.200000 0
6.700000 0.200000 0
6.800000 0.200000 0
6.900000 0.200000 0
7.000000 0.200000 0
7.100000 0.200000 0
7.200000 0.200000 0
7.300000 0.200000 0
7.400000 0.200000 0
7.500000 0.200000 0
7.600000 0.200000 0
7.700000 0.200000 0
7.800000 0.200000 0
7.900000 0.200000 0
8.000000 0.200000 0
8.100000 0.200000 0
8.200000 0.200000 0
8.300000 0.200000 0
8.400000 0.200000 0
8.500000 0.200000 0
8.600000 0.200000 0
8.700000 0.200000 0
8.800000 0.200000 0
8.900000 0.200000 0
9.000000 0.200000 0
9.100000 0.200000 0
9.200000 0.200000 0
9.300000 0.200000 0
9.400000 0.200000 0
9.500000 0.200000 0
9.600000 0.200000 0
9.700000 0.200000 0
9.800000 0.200000 0
9.900000 0.200000 0
10.000000 0.200000 0
0.000000 0.300000 0
0.100000 0.300000 0
0.200000 0.300000 0
0.300000 0.300000 0
0.400000 0.300000 0
0.500000 0.300000 0
0.600000 0.300000 0
0.700000 0.300000 0
0.800000 0.300000 0
0.900000 0.300000 0
1.000000 0.300000 0
1.100000 0.300000 0
1.200000 0.300000 0
1.300000 0.300000 0
1.400000 0.300000 0
1.500000 0.300000 0
1.600000 0.300000 0
1.700000 0.300000 0
1.800000 0.300000 0
1.900000 0.300000 0
2.000000 0.300000 0
2.100000 0.300000 0
2.200000 0.300000 0
2.300000 0.300000 0
2.400000 0.300000 0
2.500000 0.300000 0
2.600000 0.300000 0
2.700000 0.300000 0
2.800000 0.300000 0
2.900000 0.300000 0
3.000000 0.300000 0
3.100000 0.300000 0
3.200000 0.300000 0
3.300000 0.300000 0
3.400000 0.300000 0
3.500000 0.300000 0
3.600000 0.300000 0
3.700000 0.300000 0
3.800000 0.300000 0
3.900000 0.300000 0
4.000000 0.300000 0
4.100000 0.300000 0
4.200000 0.300000 0
4.300000 0.300000 0
4.400000 0.300000 0
4.500000 0.300000 0
4.600000 0.300000 0
4.700000 0.300000 0
4.800000 0.300000 0
4.900000 0.300000 0
5.000000 0.300000 0
5.100000 0.300000 0
5.200000 0.300000 0
5.300000 0.300000 0
5.400000 0.300000 0
5.500000 0.300000 0
5.600000 0.300000 0
5.700000 0.300000 0
5.800000 0.300000 0
5.900000 0.300000 0
6.000000 0.300000 0
6.100000 0.300000 0
6.200000 0.300000 0
6.300000 0.300000 0
6.400000 0.300000 0
6.500000 0.300000 0
6.600000 0.300000 0
6.700000 0.300000 0
6.800000 0.300000 0
6.900000 0.300000 0
7.000000 0.300000 0
7.100000 0.300000 0
7.200000 0.300000 0
7.300000 0.300000 0
7.400000 0.300000 0
7.500000 0.300000 0
7.600000 0.300000 0
7.700000 0.300000 0
7.800000 0.300000 0
7.900000 0.300000 0
8.000000 0.300000 0
8.100000 0.300000 0
8.200000 0.300000 0
8.300000 0.300000 0
8.400000 0.300000 0
8.500000 0.300000 0
8.600000 0.300000 0
8.700000 0.300000 0
8.800000 0.300000 0
8.900000 0.300000 0
9.000000 0.300000 0
9.100000 0.300000 0
9.200000 0.300000 0
9.300000 0.300000 0
9.400000 0.300000 0
9.500000 0.300000 0
9.600000 0.300000 0
9.700000 0.300000 0
9.800000 0.300000 0
9.900000 0.300000 0
10.000000 0.300000 0
0.000000 0.400000 0
0.100000 0.400000 0
0.200000 0.400000 0
0.300000 0.400000 0
0.400000 0.400000 0
0.500000 0.400000 0
0.600000 0.400000 0
0.700000 0.400000 0
0.800000 0.400000 0
0.900000 0.400000 0
1.000000 0.400000 0
1.100000 0.400000 0
1.200000 0.400000 0
1.300000 0.400000 0
1.400000 0.400000 0
1.500000 0.400000 0
1.600000 0.400000 0
1.700000 0.400000 0
1.800000 0.400000 0
1.900000 0.400000 0
2.000000 0.400000 0
2.100000 0.400000 0
2.200000 0.400000 0
2.300000 0.400000 0
2.400000 0.400000 0
2.500000 0.400000 0
2.600000 0.400000 0
2.700000 0.400000 0
2.800000 0.400000 0
2.900000 0.400000 0
3.000000 0.400000 0
3.100000 0.400000 0
3.200000 0.400000 0
3.300000 0.400000 0
3.400000 0.400000 0
3.500000 0.400000 0
3.600000 0.400000 0
3.700000 0.400000 0
3.800000 0.400000 0
3.900000 0.400000 0
4.000000 0.400000 0
4.100000 0.400000 0
4.200000 0.400000 0
4.300000 0.400000 0
4.400000 0.400000 0
4.500000 0.400000 0
4.600000 0.400000 0
4.700000 0.400000 0
4.800000 0.400000 0
4.900000 0.400000 0
5.000000 0.400000 0
5.100000 0.400000 0
5.200000 0.400000 0
5.300000 0.400000 0
5.400000 0.400000 0
5.500000 0.400000 0
5.600000 0.400000 0
5.700000 0.400000 0
5.800000 0.400000 0
5.900000 0.400000 0
6.000000 0.400000 0
6.100000 0.400000 0
6.200000 0.400000 0
6.300000 0.400000 0
6.400000 0.400000 0
6.500000 0.400000 0
6.600000 0.400000 0
6.700000 0.400000 0
6.800000 0.400000 0
6.900000 0.400000 0
7.000000 0.400000 0
7.100000 0.400000 0
7.200000 0.400000 0
7.300000 0.400000 0
7.400000 0.400000 0
7.500000 0.400000 0
7.600000 0.400000 0
7.700000 0.400000 0
7.800000 0.400000 0
7.900000 0.400000 0
8.000000 0.400000 0
8.100000 0.400000 0
8.200000 0.400000 0
8.300000 0.400000 0
8.400000 0.400000 0
8.500000 0.400000 0
8.600000 0.400000 0
[...]
POINT_DATA 2121 

VECTORS velocity float
0.500000 0.000000 0
-0.000071 0.000000 0
-0.000208 0.000000 0
-0.000405 0.000000 0
-0.000649 0.000000 0
-0.000911 0.000000 0
-0.001148 0.000000 0
-0.001317 0.000000 0
-0.001404 0.000000 0
-0.001410 0.000000 0
-0.001286 0.000000 0
-0.000934 0.000000 0
-0.000228 0.000000 0
0.000688 0.000000 0
0.001417 0.000000 0
0.002442 0.000000 0
0.003230 0.000000 0
0.003757 0.000000 0
0.004059 0.000000 0
0.004140 0.000000 0
0.003959 0.000000 0
0.003467 0.000000 0
0.002632 0.000000 0
0.001496 0.000000 0
0.000143 0.000000 0
-0.001148 0.000000 0
-0.002098 0.000000 0
-0.002487 0.000000 0
-0.002280 0.000000 0
-0.001595 0.000000 0
-0.000594 0.000000 0
0.000543 0.000000 0
0.001599 0.000000 0
0.002455 0.000000 0
0.002695 0.000000 0
0.000371 0.000000 0
0.006826 0.000000 0
0.023838 0.000000 0
0.017735 0.000000 0
0.001714 0.000000 0
-0.007882 0.000000 0
-0.004295 0.000000 0
0.005674 0.000000 0
0.006114 0.000000 0
0.003943 0.000000 0
0.003004 0.000000 0
0.003490 0.000000 0
0.003837 0.000000 0
0.002491 0.000000 0
-0.000160 0.000000 0
-0.003118 0.000000 0
-0.006275 0.000000 0
-0.009815 0.000000 0
-0.012945 0.000000 0
-0.014327 0.000000 0
-0.013456 0.000000 0
-0.010927 0.000000 0
-0.008157 0.000000 0
-0.008788 0.000000 0
-0.011357 0.000000 0
-0.011204 0.000000 0
-0.011094 0.000000 0
-0.010161 0.000000 0
-0.008621 0.000000 0
-0.006709 0.000000 0
-0.004154 0.000000 0
-0.001197 0.000000 0
0.001325 0.000000 0
0.003017 0.000000 0
0.005422 0.000000 0
0.010625 0.000000 0
0.018938 0.000000 0
0.028254 0.000000 0
0.016198 0.000000 0
0.004358 0.000000 0
-0.001044 0.000000 0
-0.003324 0.000000 0
-0.001591 0.000000 0
-0.001330 0.000000 0
-0.000802 0.000000 0
-0.000345 0.000000 0
-0.000157 0.000000 0
-0.000147 0.000000 0
-0.000217 0.000000 0
-0.000313 0.000000 0
-0.000410 0.000000 0
-0.000498 0.000000 0
-0.000577 0.000000 0
-0.000652 0.000000 0
-0.000722 0.000000 0
-0.000784 0.000000 0
-0.000835 0.000000 0
-0.000868 0.000000 0
-0.000885 0.000000 0
-0.000886 0.000000 0
-0.000883 0.000000 0
-0.000882 0.000000 0
-0.000877 0.000000 0
-0.000881 0.000000 0
-0.000879 0.000000 0
-0.000860 0.000000 0
1.000000 -0.003415 0
1.007363 -0.011022 0
1.023303 -0.019998 0
1.048963 -0.029968 0
1.085367 -0.040328 0
1.132804 -0.049911 0
1.189931 -0.057043 0
1.253581 -0.059675 0
1.316521 -0.057152 0
1.373419 -0.051089 0
1.422668 -0.042837 0
1.462532 -0.032820 0
1.491459 -0.019723 0
1.506296 -0.003835 0
1.503972 0.012844 0
1.482435 0.029583 0
1.444026 0.044624 0
1.391918 0.056204 0
1.330227 0.063319 0
1.263710 0.065200 0
1.197961 0.061385 0
1.138979 0.052114 0
1.092079 0.038595 0
1.060467 0.022408 0
1.046676 0.005492 0
1.050346 -0.009827 0
1.068954 -0.021373 0
1.097801 -0.027110 0
1.129574 -0.025866 0
1.156429 -0.018105 0
1.172133 -0.005664 0
1.172949 0.008935 0
1.158045 0.023214 0
1.129558 0.034872 0
1.091419 0.034397 0
1.049019 0.009326 0
0.990869 0.116000 0
0.855992 0.293945 0
0.718380 0.252342 0
0.633869 0.044824 0
0.596352 -0.108404 0
0.523824 -0.080803 0
0.411812 0.031119 0
0.344089 0.053789 0
0.336077 0.017333 0
0.322811 0.007354 0
0.297998 0.021760 0
0.259036 0.034638 0
0.224685 0.025272 0
0.219677 -0.002280 0
0.244035 -0.032832 0
0.287920 -0.062457 0
0.349835 -0.093517 0
0.437218 -0.118956 0
0.548468 -0.126552 0
0.671080 -0.113521 0
0.787299 -0.087847 0
0.891324 -0.067119 0
0.983312 -0.066403 0
1.063824 -0.076878 0
1.141744 -0.081826 0
1.220095 -0.080174 0
1.297750 -0.073008 0
1.363073 -0.059719 0
1.412414 -0.042418 0
1.444327 -0.021482 0
1.457678 0.001294 0
1.451494 0.021385 0
1.424446 0.038005 0
1.374948 0.060349 0
1.300074 0.101489 0
1.197918 0.164627 0
1.079683 0.206576 0
0.978817 0.151081 0
0.922239 0.053028 0
0.896463 -0.001934 0
0.874034 -0.020951 0
0.844820 -0.016155 0
0.830419 -0.008922 0
0.831645 -0.005469 0
0.831058 -0.002050 0
0.829463 -0.000320 0
0.828538 -0.000011 0
0.828494 -0.000410 0
0.829036 -0.001053 0
0.830012 -0.001698 0
0.831540 -0.002252 0
0.833855 -0.002718 0
0.837087 -0.003132 0
0.841131 -0.003499 0
0.845692 -0.003789 0
0.850407 -0.003957 0
0.854985 -0.003949 0
0.859337 -0.003782 0
0.863468 -0.003417 0
0.867526 -0.003026 0
0.871507 -0.002547 0
0.875117 -0.002121 0
0.878476 -0.001654 0
0.880829 -0.001514 0
0.882594 -0.001738 0
1.000000 -0.007364 0
1.007342 -0.023304 0
1.023572 -0.041602 0
1.049808 -0.062067 0
1.087902 -0.083845 0
1.139296 -0.104569 0
1.203158 -0.120784 0
1.278722 -0.126599 0
1.350967 -0.119849 0
1.412509 -0.106159 0
1.462916 -0.089126 0
1.504947 -0.068805 0
1.537517 -0.043778 0
1.557315 -0.012527 0
1.559321 0.023847 0
1.540023 0.059931 0
1.498737 0.090503 0
1.440702 0.113785 0
1.371191 0.128194 0
1.296436 0.132252 0
1.222036 0.124718 0
1.155480 0.105869 0
1.105082 0.078499 0
1.071370 0.045391 0
1.058571 0.010109 0
1.065490 -0.022290 0
1.089684 -0.047466 0
1.127150 -0.060631 0
1.168746 -0.058639 0
1.204903 -0.042570 0
1.228570 -0.016530 0
1.234572 0.014079 0
1.220872 0.043383 0
1.192071 0.066618 0
1.153284 0.080531 0
1.097709 0.100543 0
1.003044 0.193021 0
1.000432 0.272484 0
1.042961 0.222118 0
1.015924 0.122024 0
0.910169 0.110042 0
0.724463 0.184538 0
0.574089 0.179733 0
0.465230 0.075733 0
0.333300 0.021277 0
0.249266 0.038079 0
0.220701 0.063776 0
0.185302 0.073315 0
0.161967 0.039361 0
0.174780 -0.019348 0
0.215450 -0.068240 0
0.259292 -0.105797 0
0.290880 -0.149294 0
0.321990 -0.198629 0
0.369845 -0.233858 0
0.447065 -0.238828 0
0.547565 -0.220241 0
0.659149 -0.196009 0
0.771729 -0.172496 0
0.876561 -0.158429 0
0.972841 -0.156268 0
1.060992 -0.156003 0
1.134659 -0.142976 0
1.193996 -0.114662 0
1.238569 -0.081252 0
1.267387 -0.045262 0
1.281972 -0.007165 0
1.285608 0.033234 0
1.272548 0.076548 0
1.234689 0.124374 0
1.176174 0.177031 0
1.120733 0.220392 0
1.104976 0.219102 0
1.118944 0.157444 0
1.109955 0.082354 0
1.094828 0.048206 0
1.060621 0.051644 0
1.013106 0.043616 0
0.965626 0.013176 0
0.919851 -0.000639 0
0.890955 0.002183 0
0.877979 0.002521 0
0.873349 0.000970 0
0.871882 -0.000497 0
0.871623 -0.001517 0
0.872257 -0.002503 0
0.873917 -0.003842 0
0.876655 -0.005545 0
0.880341 -0.007274 0
0.884756 -0.008604 0
0.889710 -0.009274 0
0.895077 -0.009291 0
0.900805 -0.008929 0
0.906855 -0.008481 0
0.913051 -0.008186 0
0.919210 -0.008036 0
0.924779 -0.007589 0
0.929787 -0.006967 0
0.933658 -0.005710 0
0.936823 -0.004116 0
0.938605 -0.003477 0
1.000000 -0.010756 0
1.005460 -0.034593 0
1.020627 -0.062464 0
1.045377 -0.094298 0
1.083707 -0.129817 0
1.139271 -0.165169 0
1.211883 -0.196471 0
1.314379 -0.207488 0
1.403146 -0.190943 0
1.465904 -0.163043 0
1.512337 -0.135280 0
1.553872 -0.107426 0
1.591836 -0.072096 0
1.618637 -0.025644 0
1.627549 0.030131 0
1.613113 0.090162 0
1.567816 0.143940 0
1.497196 0.183744 0
1.413609 0.207581 0
1.321414 0.214350 0
1.231102 0.202336 0
1.156699 0.169064 0
1.099273 0.122701 0
1.050183 0.068915 0
1.034738 0.011367 0
1.043188 -0.040945 0
1.068674 -0.083036 0
1.110752 -0.106176 0
1.159477 -0.103623 0
1.206045 -0.077933 0
1.244696 -0.035336 0
1.267612 0.016630 0
1.263541 0.065712 0
1.238005 0.102456 0
1.195799 0.128757 0
1.137540 0.159565 0
1.078888 0.213276 0
1.082507 0.254027 0
1.087196 0.236848 0
1.055469 0.177615 0
0.988163 0.183057 0
0.938083 0.255277 0
0.925075 0.290351 0
0.863591 0.294578 0
0.738667 0.233298 0
0.618990 0.119953 0
0.488900 0.085725 0
0.357850 0.093374 0
0.293175 0.035796 0
0.301448 -0.055762 0
0.346407 -0.117343 0
0.402234 -0.137884 0
0.439074 -0.156214 0
0.439936 -0.197919 0
0.412275 -0.251626 0
0.398768 -0.291240 0
0.424555 -0.299930 0
0.479009 -0.291282 0
0.548160 -0.283813 0
0.630314 -0.277989 0
0.719496 -0.266256 0
0.809425 -0.241990 0
0.891371 -0.206012 0
0.965534 -0.163629 0
1.025966 -0.115808 0
1.063754 -0.064885 0
1.077244 -0.016927 0
1.072684 0.030810 0
1.057326 0.088924 0
1.037165 0.156724 0
1.022707 0.215445 0
1.028331 0.235826 0
1.054385 0.208366 0
1.077376 0.146102 0
1.062073 0.077143 0
1.018762 0.047399 0
0.980334 0.060771 0
0.954770 0.078841 0
0.922617 0.084334 0
0.884401 0.069203 0
0.863026 0.039822 0
0.860736 0.017286 0
0.862589 0.006087 0
0.863232 0.001316 0
0.862967 -0.001428 0
0.863119 -0.003991 0
0.864438 -0.006649 0
0.867052 -0.009141 0
0.870817 -0.011233 0
0.875594 -0.012867 0
0.881342 -0.014109 0
0.888048 -0.015051 0
0.895557 -0.015726 0
0.903484 -0.016027 0
0.911314 -0.015771 0
0.918530 -0.014753 0
0.924685 -0.013123 0
0.929866 -0.010999 0
0.933557 -0.008689 0
0.936765 -0.006460 0
0.938609 -0.005252 0
1.000000 -0.012822 0
0.999921 -0.043929 0
1.015049 -0.081517 0
1.035304 -0.125147 0
1.071844 -0.177739 0
1.129221 -0.232746 0
1.210693 -0.295894 0
1.376728 -0.317864 0
1.480100 -0.271377 0
1.530754 -0.215355 0
1.560647 -0.177098 0
1.593511 -0.148309 0
1.637132 -0.108548 0
1.675060 -0.048245 0
1.698397 0.029366 0
1.702518 0.119660 0
1.663591 0.206416 0
1.576252 0.267987 0
1.458343 0.303971 0
1.340955 0.314755 0
1.230926 0.289429 0
1.106714 0.237695 0
1.070506 0.185011 0
1.028541 0.109922 0
1.023377 0.017100 0
1.008434 -0.056230 0
0.987436 -0.115033 0
0.961453 -0.151437 0
0.969352 -0.153936 0
1.029029 -0.127792 0
1.108158 -0.078100 0
1.172467 -0.004769 0
1.203315 0.072987 0
1.213492 0.134357 0
1.209609 0.180994 0
1.186844 0.217452 0
1.156887 0.248052 0
1.142623 0.264173 0
1.132069 0.249154 0
1.107703 0.221056 0
1.038910 0.227428 0
0.980319 0.247625 0
0.979177 0.254225 0
1.013835 0.262142 0
1.051251 0.265879 0
0.986340 0.287848 0
0.769565 0.324917 0
0.532018 0.269040 0
0.439899 0.095765 0
0.437191 -0.072578 0
0.443356 -0.169025 0
0.459776 -0.198463 0
0.492581 -0.186996 0
0.507208 -0.171828 0
0.487881 -0.192688 0
0.450223 -0.251107 0
0.430762 -0.300481 0
0.443182 -0.319612 0
0.470992 -0.323799 0
0.498968 -0.329764 0
0.527035 -0.335378 0
0.562930 -0.327877 0
0.612754 -0.299084 0
0.671044 -0.249256 0
0.727640 -0.179471 0
0.774355 -0.096540 0
0.805947 -0.016095 0
0.821128 0.053152 0
0.829056 0.112068 0
0.844508 0.158993 0
0.877070 0.185865 0
0.921532 0.188715 0
0.957194 0.170057 0
0.970216 0.149757 0
0.951125 0.140969 0
0.912203 0.129946 0
0.888717 0.115636 0
0.889803 0.101333 0
0.904146 0.083546 0
0.922715 0.058953 0
0.926018 0.025849 0
0.908059 0.002959 0
0.886089 -0.001525 0
0.868945 -0.000875 0
0.858263 -0.001404 0
0.853114 -0.003973 0
0.852202 -0.007774 0
0.854502 -0.011922 0
0.859316 -0.015815 0
0.866135 -0.019128 0
0.874473 -0.021727 0
0.883782 -0.023506 0
0.893462 -0.024364 0
0.902956 -0.024237 0
0.911778 -0.023231 0
0.919704 -0.021406 0
0.926484 -0.018924 0
0.932195 -0.015838 0
0.936531 -0.012607 0
0.940048 -0.009167 0
0.941955 -0.007124 0
1.000000 -0.010673 0
0.999075 -0.049637 0
1.006678 -0.097844 0
1.014723 -0.151092 0
1.049266 -0.223733 0
1.097551 -0.304017 0
1.192968 -0.443979 0
1.474637 -0.476897 0
1.546619 -0.344972 0
1.538850 -0.243594 0
1.517325 -0.198042 0
1.508696 -0.183916 0
1.547925 -0.153649 0
1.594700 -0.086914 0
1.636603 0.002669 0
1.702926 0.124963 0
1.717458 0.270202 0
1.670599 0.388988 0
1.562371 0.442873 0
1.401889 0.441763 0
1.188363 0.436573 0
0.932768 0.329480 0
0.709842 0.200870 0
0.638564 0.116040 0
0.752916 0.031470 0
0.723783 -0.005007 0
0.556577 -0.036059 0
0.428989 -0.088095 0
0.400273 -0.171202 0
0.477512 -0.216743 0
0.625941 -0.178777 0
0.799417 -0.078529 0
0.947683 0.024684 0
1.051422 0.096159 0
1.108306 0.155402 0
1.134275 0.212284 0
1.153159 0.257495 0
1.167485 0.278844 0
1.171399 0.271767 0
1.149557 0.270773 0
1.096969 0.310441 0
1.030399 0.315010 0
0.932701 0.256835 0
0.929402 0.222505 0
0.992751 0.260794 0
0.928142 0.401640 0
0.694440 0.540048 0
0.534968 0.423041 0
0.508930 0.130624 0
0.509713 -0.059218 0
0.498964 -0.139927 0
0.451243 -0.187108 0
0.397485 -0.203644 0
0.378282 -0.193217 0
0.390731 -0.194640 0
0.406033 -0.234120 0
0.420278 -0.292888 0
0.445583 -0.331511 0
0.482338 -0.339598 0
0.515443 -0.334031 0
0.530097 -0.330218 0
0.525709 -0.327709 0
0.514694 -0.314124 0
0.510255 -0.278514 0
0.518452 -0.219119 0
0.542551 -0.143191 0
0.579433 -0.063700 0
0.622321 0.007702 0
0.667832 0.065545 0
0.716435 0.108710 0
0.766278 0.138421 0
0.811234 0.155702 0
0.846894 0.159682 0
0.870023 0.152172 0
0.892556 0.135158 0
0.917811 0.109808 0
0.937884 0.083171 0
0.951806 0.063411 0
0.956097 0.051423 0
0.950616 0.047332 0
0.931609 0.054479 0
0.897588 0.057215 0
0.866253 0.045201 0
0.844975 0.029143 0
0.833678 0.014404 0
0.830082 0.002071 0
0.831951 -0.008036 0
0.837632 -0.016255 0
0.846012 -0.022865 0
0.856317 -0.028023 0
0.867877 -0.031755 0
0.880027 -0.034039 0
0.892141 -0.034899 0
0.903634 -0.034342 0
0.914035 -0.032518 0
0.923051 -0.029459 0
0.930452 -0.025613 0
0.936678 -0.021046 0
0.941226 -0.016541 0
0.945478 -0.011883 0
0.947473 -0.009017 0
1.000000 -0.011891 0
1.002822 -0.050599 0
0.996983 -0.097162 0
0.992886 -0.167732 0
1.020096 -0.260565 0
1.027868 -0.376447 0
1.168773 -0.672979 0
1.488980 -0.671516 0
1.365412 -0.335593 0
1.225852 -0.186065 0
1.130594 -0.146949 0
0.968640 -0.178914 0
1.029720 -0.194556 0
1.092125 -0.136927 0
1.119060 -0.078864 0
1.407061 0.038800 0
1.469246 0.238739 0
1.513633 0.423071 0
1.543477 0.572676 0
1.483161 0.688759 0
1.332528 0.758546 0
1.170601 0.716212 0
0.838009 0.479212 0
0.474997 0.066845 0
0.328825 -0.068122 0
0.203828 0.140106 0
0.020508 0.179758 0
-0.068456 0.004863 0
-0.082017 -0.202462 0
-0.031224 -0.353463 0
0.101406 -0.400008 0
0.315302 -0.326513 0
0.559262 -0.179021 0
0.758879 -0.026268 0
0.901295 0.098139 0
0.994373 0.172597 0
1.049982 0.214841 0
1.089631 0.245932 0
1.117515 0.267081 0
1.113730 0.295485 0
1.090990 0.346585 0
1.065571 0.411893 0
0.999057 0.355222 0
0.931498 0.202092 0
0.880005 0.267140 0
0.753868 0.586159 0
0.668075 0.718091 0
0.699489 0.454551 0
0.641378 0.121021 0
0.532948 -0.062611 0
0.509877 -0.110553 0
0.498307 -0.096983 0
0.417025 -0.114034 0
0.341753 -0.165073 0
0.323810 -0.220437 0
0.354780 -0.280653 0
0.404382 -0.340030 0
0.454711 -0.381671 0
0.504901 -0.393658 0
0.550473 -0.377523 0
0.580657 -0.345643 0
0.586816 -0.312472 0
0.571549 -0.283630 0
0.547017 -0.253013 0
0.527985 -0.211767 0
0.524680 -0.157521 0
0.540323 -0.095865 0
0.571606 -0.035247 0
0.613130 0.017954 0
0.660407 0.060547 0
0.710664 0.091067 0
0.762605 0.108099 0
0.813873 0.111269 0
0.858865 0.104095 0
0.892400 0.093181 0
0.908401 0.084618 0
0.904241 0.081642 0
0.884167 0.083121 0
0.856454 0.084736 0
0.827440 0.083442 0
0.804934 0.078878 0
0.796933 0.068316 0
0.794618 0.051088 0
0.794824 0.031701 0
0.797680 0.013491 0
0.803685 -0.002245 0
0.812865 -0.015323 0
0.824738 -0.025983 0
0.838481 -0.034499 0
0.853178 -0.040992 0
0.868028 -0.045436 0
0.882438 -0.047769 0
0.896035 -0.047969 0
0.908507 -0.046129 0
0.919657 -0.042648 0
0.929281 -0.037822 0
0.937567 -0.032549 0
0.944794 -0.026610 0
0.950547 -0.021407 0
0.956183 -0.015413 0
0.958242 -0.011063 0
1.000000 -0.013487 0
1.001569 -0.046609 0
0.987955 -0.087904 0
0.979710 -0.174200 0
0.968590 -0.258710 0
0.946066 -0.452691 0
1.017334 -0.905091 0
0.722605 -0.591691 0
-0.002500 0.000000 0
-0.001448 0.000000 0
0.403467 0.067945 0
0.316056 -0.083047 0
0.335423 -0.277139 0
0.260505 -0.176258 0
0.300944 -0.312271 0
0.878347 -0.225226 0
0.964457 0.163627 0
1.045266 0.314754 0
1.150769 0.473341 0
1.245533 0.652708 0
1.317390 0.749130 0
1.276754 0.823996 0
1.065769 0.896470 0
0.827380 0.625220 0
0.425906 0.302636 0
0.087993 0.303307 0
-0.026651 0.236221 0
-0.034471 0.014426 0
-0.026199 -0.208438 0
-0.030416 -0.400169 0
-0.012390 -0.525306 0
0.076981 -0.536387 0
0.255931 -0.418894 0
0.468523 -0.245876 0
0.669968 -0.080095 0
0.837985 0.063595 0
0.949840 0.162236 0
1.016374 0.211310 0
1.046088 0.247667 0
1.049150 0.297297 0
1.049662 0.358599 0
1.054207 0.406943 0
1.074725 0.390908 0
1.004524 0.341556 0
0.847680 0.438424 0
0.771489 0.613570 0
0.877497 0.594428 0
0.968877 0.449739 0
0.920541 0.297166 0
0.835594 0.072285 0
0.750328 -0.105285 0
0.650594 -0.094255 0
0.587112 -0.047088 0
0.557637 -0.100002 0
0.543594 -0.207666 0
0.539088 -0.314691 0
0.550037 -0.392817 0
0.570649 -0.432029 0
0.595473 -0.435359 0
0.622488 -0.409785 0
0.647248 -0.366560 0
0.662770 -0.318599 0
0.666037 -0.274325 0
0.657326 -0.234949 0
0.644844 -0.196780 0
0.638873 -0.155529 0
0.645963 -0.110625 0
0.667831 -0.065105 0
0.702081 -0.023256 0
0.745233 0.011176 0
0.791987 0.036224 0
0.834410 0.052494 0
0.864046 0.063423 0
0.875702 0.073646 0
0.869551 0.085622 0
0.850133 0.097967 0
0.824538 0.107405 0
0.799884 0.111199 0
0.780666 0.108151 0
0.768037 0.098853 0
0.762056 0.084986 0
0.762609 0.067532 0
0.766634 0.047310 0
0.772878 0.026082 0
0.781647 0.005544 0
0.793403 -0.013113 0
0.808128 -0.029088 0
0.825190 -0.041871 0
0.843445 -0.051304 0
0.861561 -0.057568 0
0.878495 -0.061014 0
0.893752 -0.062045 0
0.907361 -0.060966 0
0.920004 -0.057962 0
0.932133 -0.053291 0
0.943455 -0.047367 0
0.954072 -0.041124 0
0.962703 -0.034024 0
0.969411 -0.027929 0
0.973798 -0.019576 0
0.975439 -0.013062 0
1.000000 -0.013451 0
0.999964 -0.038541 0
0.975719 -0.075297 0
0.975365 -0.148362 0
0.894646 -0.226915 0
0.892355 -0.425185 0
0.614443 -0.531360 0
0.000000 0.003578 0
-0.583254 0.238514 0
-0.470304 0.000000 0
0.000000 0.000000 0
0.053317 -0.125502 0
-0.106023 -0.139010 0
-0.260113 -0.102451 0
-0.012750 -0.696709 0
0.140457 -0.624716 0
0.324855 0.071817 0
0.520010 0.236756 0
0.783376 0.372406 0
0.933219 0.522135 0
0.986779 0.727322 0
0.934265 0.967830 0
0.916781 0.928583 0
0.964179 0.706705 0
0.624582 0.671261 0
0.296505 0.592659 0
0.217621 0.302218 0
0.210085 0.004408 0
0.224176 -0.206519 0
0.232293 -0.367275 0
0.216554 -0.507408 0
0.194426 -0.594837 0
0.233249 -0.570566 0
0.355978 -0.440307 0
0.518341 -0.271324 0
0.690506 -0.107277 0
0.840302 0.036450 0
0.940593 0.149684 0
0.984344 0.234304 0
1.002947 0.291910 0
1.024864 0.341527 0
1.059004 0.386830 0
1.086608 0.404906 0
1.066929 0.429137 0
1.005030 0.500175 0
1.034263 0.556344 0
1.124465 0.520704 0
1.167494 0.411508 0
1.197292 0.254305 0
1.203699 0.107603 0
1.120084 0.074448 0
1.025696 0.066235 0
1.018149 -0.021075 0
1.036681 -0.121554 0
1.029882 -0.201887 0
1.003106 -0.287094 0
0.974197 -0.371591 0
0.945247 -0.427107 0
0.903911 -0.445496 0
0.850629 -0.429296 0
0.808807 -0.385924 0
0.793156 -0.331261 0
0.796520 -0.278185 0
0.804296 -0.231820 0
0.810650 -0.193314 0
0.817359 -0.158639 0
0.828489 -0.124822 0
0.848005 -0.091364 0
0.868221 -0.059447 0
0.883459 -0.029358 0
0.892337 0.001890 0
0.892018 0.036041 0
0.879716 0.069977 0
0.857557 0.098590 0
0.830888 0.118750 0
0.805506 0.129632 0
0.784996 0.131891 0
0.770350 0.126994 0
0.760708 0.116584 0
0.754790 0.102051 0
0.751960 0.084307 0
0.752538 0.063739 0
0.756661 0.040820 0
0.764508 0.016689 0
0.776377 -0.007033 0
0.792058 -0.028725 0
0.810634 -0.047109 0
0.831025 -0.061299 0
0.851934 -0.070869 0
0.872599 -0.076040 0
0.892616 -0.077626 0
0.911608 -0.076634 0
0.929193 -0.074221 0
0.945245 -0.070900 0
0.959650 -0.066097 0
0.971407 -0.059760 0
0.981270 -0.051796 0
0.987880 -0.041948 0
0.992358 -0.032500 0
0.993308 -0.021439 0
0.994237 -0.014249 0
1.000000 -0.013439 0
0.989918 -0.022313 0
0.977862 -0.063298 0
0.946500 -0.093121 0
0.885357 -0.175693 0
0.809384 -0.172482 0
0.495413 -0.085808 0
0.361341 -0.050323 0
0.000000 0.000000 0
0.000000 0.000000 0
0.000000 0.000000 0
0.000000 0.000000 0
-0.133848 0.027941 0
-0.138650 -0.269534 0
-0.213382 -0.712843 0
-0.558890 -0.562833 0
-0.239011 -0.215929 0
-0.063475 -0.143770 0
0.448912 0.060130 0
0.743227 0.449303 0
0.828005 0.748082 0
0.873841 0.893992 0
0.944697 0.866553 0
0.838240 0.917416 0
0.569518 0.970307 0
0.426235 0.710265 0
0.373672 0.322637 0
0.326167 0.007868 0
0.306638 -0.230648 0
0.336595 -0.392550 0
0.392241 -0.487441 0
0.419574 -0.553085 0
0.420534 -0.580448 0
0.447847 -0.530969 0
0.528178 -0.414624 0
0.644550 -0.258368 0
0.765319 -0.087853 0
0.862370 0.067266 0
0.930223 0.185313 0
0.979699 0.256777 0
1.024197 0.302541 0
1.077124 0.345199 0
1.125487 0.382983 0
1.153875 0.423135 0
1.185787 0.471091 0
1.248576 0.494137 0
1.316895 0.461198 0
1.361084 0.376913 0
1.385521 0.260962 0
1.368792 0.149494 0
1.341044 0.072719 0
1.362644 0.007680 0
1.378870 -0.058072 0
1.363513 -0.111733 0
1.344856 -0.174089 0
1.338787 -0.259004 0
1.331577 -0.334958 0
1.317530 -0.361742 0
1.279741 -0.340740 0
1.195535 -0.314680 0