# vtk DataFile Version 2.0
generated by CFD-lab course output (written by Tobias Neckel) 
ASCII

DATASET STRUCTURED_GRID
DIMENSIONS  101 21 1 
POINTS 2121 float

0.000000 0.000000 0
0.100000 0.000000 0
0.200000 0.000000 0
0.300000 0.000000 0
0.400000 0.000000 0
0.500000 0.000000 0
0.600000 0.000000 0
0.700000 0.000000 0
0.800000 0.000000 0
0.900000 0.000000 0
1.000000 0.000000 0
1.100000 0.000000 0
1.200000 0.000000 0
1.300000 0.000000 0
1.400000 0.000000 0
1.500000 0.000000 0
1.600000 0.000000 0
1.700000 0.000000 0
1.800000 0.000000 0
1.900000 0.000000 0
2.000000 0.000000 0
2.100000 0.000000 0
2.200000 0.000000 0
2.300000 0.000000 0
2.400000 0.000000 0
2.500000 0.000000 0
2.600000 0.000000 0
2.700000 0.000000 0
2.800000 0.000000 0
2.900000 0.000000 0
3.000000 0.000000 0
3.100000 0.000000 0
3.200000 0.000000 0
3.300000 0.000000 0
3.400000 0.000000 0
3.500000 0.000000 0
3.600000 0.000000 0
3.700000 0.000000 0
3.800000 0.000000 0
3.900000 0.000000 0
4.000000 0.000000 0
4.100000 0.000000 0
4.200000 0.000000 0
4.300000 0.000000 0
4.400000 0.000000 0
4.500000 0.000000 0
4.600000 0.000000 0
4.700000 0.000000 0
4.800000 0.000000 0
4.900000 0.000000 0
5.000000 0.000000 0
5.100000 0.000000 0
5.200000 0.000000 0
5.300000 0.000000 0
5.400000 0.000000 0
5.500000 0.000000 0
5.600000 0.000000 0
5.700000 0.000000 0
5.800000 0.000000 0
5.900000 0.000000 0
6.000000 0.000000 0
6.100000 0.000000 0
6.200000 0.000000 0
6.300000 0.000000 0
6.400000 0.000000 0
6.500000 0.000000 0
6.600000 0.000000 0
6.700000 0.000000 0
6.800000 0.000000 0
6.900000 0.000000 0
7.000000 0.000000 0
7.100000 0.000000 0
7.200000 0.000000 0
7.300000 0.000000 0
7.400000 0.000000 0
7.500000 0.000000 0
7.600000 0.000000 0
7.700000 0.000000 0
7.800000 0.000000 0
7.900000 0.000000 0
8.000000 0.000000 0
8.100000 0.000000 0
8.200000 0.000000 0
8.300000 0.000000 0
8.400000 0.000000 0
8.500000 0.000000 0
8.600000 0.000000 0
8.700000 0.000000 0
8.800000 0.000000 0
8.900000 0.000000 0
9.000000 0.000000 0
9.100000 0.000000 0
9.200000 0.000000 0
9.300000 0.000000 0
9.400000 0.000000 0
9.500000 0.000000 0
9.600000 0.000000 0
9.700000 0.000000 0
9.800000 0.000000 0
9.900000 0.000000 0
10.000000 0.000000 0
0.000000 0.100000 0
0.100000 0.100000 0
0.200000 0.100000 0
0.300000 0.100000 0
0.400000 0.100000 0
0.500000 0.100000 0
0.600000 0.100000 0
0.700000 0.100000 0
0.800000 0.100000 0
0.900000 0.100000 0
1.000000 0.100000 0
1.100000 0.100000 0
1.200000 0.100000 0
1.300000 0.100000 0
1.400000 0.100000 0
1.500000 0.100000 0
1.600000 0.100000 0
1.700000 0.100000 0
1.800000 0.100000 0
1.900000 0.100000 0
2.000000 0.100000 0
2.100000 0.100000 0
2.200000 0.100000 0
2.300000 0.100000 0
2.400000 0.100000 0
2.500000 0.100000 0
2.600000 0.100000 0
2.700000 0.100000 0
2.800000 0.100000 0
2.900000 0.100000 0
3.000000 0.100000 0
3.100000 0.100000 0
3.200000 0.100000 0
3.300000 0.100000 0
3.400000 0.100000 0
3.500000 0.100000 0
3.600000 0.100000 0
3.700000 0.100000 0
3.800000 0.100000 0
3.900000 0.100000 0
4.000000 0.100000 0
4.100000 0.100000 0
4.200000 0.100000 0
4.300000 0.100000 0
4.400000 0.100000 0
4.500000 0.100000 0
4.600000 0.100000 0
4.700000 0.100000 0
4.800000 0.100000 0
4.900000 0.100000 0
5.000000 0.100000 0
5.100000 0.100000 0
5.200000 0.100000 0
5.300000 0.100000 0
5.400000 0.100000 0
5.500000 0.100000 0
5.600000 0.100000 0
5.700000 0.100000 0
5.800000 0.100000 0
5.900000 0.100000 0
6.000000 0.100000 0
6.100000 0.100000 0
6.200000 0.100000 0
6.300000 0.100000 0
6.400000 0.100000 0
6.500000 0.100000 0
6.600000 0.100000 0
6.700000 0.100000 0
6.800000 0.100000 0
6.900000 0.100000 0
7.000000 0.100000 0
7.100000 0.100000 0
7.200000 0.100000 0
7.300000 0.100000 0
7.400000 0.100000 0
7.500000 0.100000 0
7.600000 0.100000 0
7.700000 0.100000 0
7.800000 0.100000 0
7.900000 0.100000 0
8.000000 0.100000 0
8.100000 0.100000 0
8.200000 0.100000 0
8.300000 0.100000 0
8.400000 0.100000 0
8.500000 0.100000 0
8.600000 0.100000 0
8.700000 0.100000 0
8.800000 0.100000 0
8.900000 0.100000 0
9.000000 0.100000 0
9.100000 0.100000 0
9.200000 0.100000 0
9.300000 0.100000 0
9.400000 0.100000 0
9.500000 0.100000 0
9.600000 0.100000 0
9.700000 0.100000 0
9.800000 0.100000 0
9.900000 0.100000 0
10.000000 0.100000 0
0.000000 0.200000 0
0.100000 0.200000 0
0.200000 0.200000 0
0.300000 0.200000 0
0.400000 0.200000 0
0.500000 0.200000 0
0.600000 0.200000 0
0.700000 0.200000 0
0.800000 0.200000 0
0.900000 0.200000 0
1.000000 0.200000 0
1.100000 0.200000 0
1.200000 0.200000 0
1.300000 0.200000 0
1.400000 0.200000 0
1.500000 0.200000 0
1.600000 0.200000 0
1.700000 0.200000 0
1.800000 0.200000 0
1.900000 0.200000 0
2.000000 0.200000 0
2.100000 0.200000 0
2.200000 0.200000 0
2.300000 0.200000 0
2.400000 0.200000 0
2.500000 0.200000 0
2.600000 0.200000 0
2.700000 0.200000 0
2.800000 0.200000 0
2.900000 0.200000 0
3.000000 0.200000 0
3.100000 0.200000 0
3.200000 0.200000 0
3.300000 0.200000 0
3.400000 0.200000 0
3.500000 0.200000 0
3.600000 0.200000 0
3.700000 0.200000 0
3.800000 0.200000 0
3.900000 0.200000 0
4.000000 0.200000 0
4.100000 0.200000 0
4.200000 0.200000 0
4.300000 0.200000 0
4.400000 0.200000 0
4.500000 0.200000 0
4.600000 0.200000 0
4.700000 0.200000 0
4.800000 0.200000 0
4.900000 0.200000 0
5.000000 0.200000 0
5.100000 0.200000 0
5.200000 0.200000 0
5.300000 0.200000 0
5.400000 0.200000 0
5.500000 0.200000 0
5.600000 0.200000 0
5.700000 0.200000 0
5.800000 0.200000 0
5.900000 0.200000 0
6.000000 0.200000 0
6.100000 0.200000 0
6.200000 0.200000 0
6.300000 0.200000 0
6.400000 0.200000 0
6.500000 0.200000 0
6.600000 0.200000 0
6.700000 0.200000 0
6.800000 0.200000 0
6.900000 0.200000 0
7.000000 0.200000 0
7.100000 0.200000 0
7.200000 0.200000 0
7.300000 0.200000 0
7.400000 0.200000 0
7.500000 0.200000 0
7.600000 0.200000 0
7.700000 0.200000 0
7.800000 0.200000 0
7.900000 0.200000 0
8.000000 0.200000 0
8.100000 0.200000 0
8.200000 0.200000 0
8.300000 0.200000 0
8.400000 0.200000 0
8.500000 0.200000 0
8.600000 0.200000 0
8.700000 0.200000 0
8.800000 0.200000 0
8.900000 0.200000 0
9.000000 0.200000 0
9.100000 0.200000 0
9.200000 0.200000 0
9.300000 0.200000 0
9.400000 0.200000 0
9.500000 0.200000 0
9.600000 0.200000 0
9.700000 0.200000 0
9.800000 0.200000 0
9.900000 0.200000 0
10.000000 0.200000 0
0.000000 0.300000 0
0.100000 0.300000 0
0.200000 0.300000 0
0.300000 0.300000 0
0.400000 0.300000 0
0.500000 0.300000 0
0.600000 0.300000 0
0.700000 0.300000 0
0.800000 0.300000 0
0.900000 0.300000 0
1.000000 0.300000 0
1.100000 0.300000 0
1.200000 0.300000 0
1.300000 0.300000 0
1.400000 0.300000 0
1.500000 0.300000 0
1.600000 0.300000 0
1.700000 0.300000 0
1.800000 0.300000 0
1.900000 0.300000 0
2.000000 0.300000 0
2.100000 0.300000 0
2.200000 0.300000 0
2.300000 0.300000 0
2.400000 0.300000 0
2.500000 0.300000 0
2.600000 0.300000 0
2.700000 0.300000 0
2.800000 0.300000 0
2.900000 0.300000 0
3.000000 0.300000 0
3.100000 0.300000 0
3.200000 0.300000 0
3.300000 0.300000 0
3.400000 0.300000 0
3.500000 0.300000 0
3.600000 0.300000 0
3.700000 0.300000 0
3.800000 0.300000 0
3.900000 0.300000 0
4.000000 0.300000 0
4.100000 0.300000 0
4.200000 0.300000 0
4.300000 0.300000 0
4.400000 0.300000 0
4.500000 0.300000 0
4.600000 0.300000 0
4.700000 0.300000 0
4.800000 0.300000 0
4.900000 0.300000 0
5.000000 0.300000 0
5.100000 0.300000 0
5.200000 0.300000 0
5.300000 0.300000 0
5.400000 0.300000 0
5.500000 0.300000 0
5.600000 0.300000 0
5.700000 0.300000 0
5.800000 0.300000 0
5.900000 0.300000 0
6.000000 0.300000 0
6.100000 0.300000 0
6.200000 0.300000 0
6.300000 0.300000 0
6.400000 0.300000 0
6.500000 0.300000 0
6.600000 0.300000 0
6.700000 0.300000 0
6.800000 0.300000 0
6.900000 0.300000 0
7.000000 0.300000 0
7.100000 0.300000 0
7.200000 0.300000 0
7.300000 0.300000 0
7.400000 0.300000 0
7.500000 0.300000 0
7.600000 0.300000 0
7.700000 0.300000 0
7.800000 0.300000 0
7.900000 0.300000 0
8.000000 0.300000 0
8.100000 0.300000 0
8.200000 0.300000 0
8.300000 0.300000 0
8.400000 0.300000 0
8.500000 0.300000 0
8.600000 0.300000 0
8.700000 0.300000 0
8.800000 0.300000 0
8.900000 0.300000 0
9.000000 0.300000 0
9.100000 0.300000 0
9.200000 0.300000 0
9.300000 0.300000 0
9.400000 0.300000 0
9.500000 0.300000 0
9.600000 0.300000 0
9.700000 0.300000 0
9.800000 0.300000 0
9.900000 0.300000 0
10.000000 0.300000 0
0.000000 0.400000 0
0.100000 0.400000 0
0.200000 0.400000 0
0.300000 0.400000 0
0.400000 0.400000 0
0.500000 0.400000 0
0.600000 0.400000 0
0.700000 0.400000 0
0.800000 0.400000 0
0.900000 0.400000 0
1.000000 0.400000 0
1.100000 0.400000 0
1.200000 0.400000 0
1.300000 0.400000 0
1.400000 0.400000 0
1.500000 0.400000 0
1.600000 0.400000 0
1.700000 0.400000 0
1.800000 0.400000 0
1.900000 0.400000 0
2.000000 0.400000 0
2.100000 0.400000 0
2.200000 0.400000 0
2.300000 0.400000 0
2.400000 0.400000 0
2.500000 0.400000 0
2.600000 0.400000 0
2.700000 0.400000 0
2.800000 0.400000 0
2.900000 0.400000 0
3.000000 0.400000 0
3.100000 0.400000 0
3.200000 0.400000 0
3.300000 0.400000 0
3.400000 0.400000 0
3.500000 0.400000 0
3.600000 0.400000 0
3.700000 0.400000 0
3.800000 0.400000 0
3.900000 0.400000 0
4.000000 0.400000 0
4.100000 0.400000 0
4.200000 0.400000 0
4.300000 0.400000 0
4.400000 0.400000 0
4.500000 0.400000 0
4.600000 0.400000 0
4.700000 0.400000 0
4.800000 0.400000 0
4.900000 0.400000 0
5.000000 0.400000 0
5.100000 0.400000 0
5.200000 0.400000 0
5.300000 0.400000 0
5.400000 0.400000 0
5.500000 0.400000 0
5.600000 0.400000 0
5.700000 0.400000 0
5.800000 0.400000 0
5.900000 0.400000 0
6.000000 0.400000 0
6.100000 0.400000 0
6.200000 0.400000 0
6.300000 0.400000 0
6.400000 0.400000 0
6.500000 0.400000 0
6.600000 0.400000 0
6.700000 0.400000 0
6.800000 0.400000 0
6.900000 0.400000 0
7.000000 0.400000 0
7.100000 0.400000 0
7.200000 0.400000 0
7.300000 0.400000 0
7.400000 0.400000 0
7.500000 0.400000 0
7.600000 0.400000 0
7.700000 0.400000 0
7.800000 0.400000 0
7.900000 0.400000 0
8.000000 0.400000 0
8.100000 0.400000 0
8.200000 0.400000 0
8.300000 0.400000 0
8.400000 0.400000 0
8.500000 0.400000 0
8.600000 0.400000 0
[...]
POINT_DATA 2121 

VECTORS velocity float
0.500000 0.000000 0
-0.000097 0.000000 0
-0.000291 0.000000 0
-0.000546 0.000000 0
-0.000845 0.000000 0
-0.001163 0.000000 0
-0.001450 0.000000 0
-0.001655 0.000000 0
-0.001779 0.000000 0
-0.001865 0.000000 0
-0.001881 0.000000 0
-0.001700 0.000000 0
-0.001073 0.000000 0
0.000148 0.000000 0
0.001927 0.000000 0
0.003798 0.000000 0
0.004952 0.000000 0
0.005920 0.000000 0
0.006550 0.000000 0
0.006737 0.000000 0
0.006457 0.000000 0
0.005662 0.000000 0
0.004281 0.000000 0
0.004514 0.000000 0
0.003373 0.000000 0
0.001582 0.000000 0
0.001181 0.000000 0
0.001126 0.000000 0
-0.000162 0.000000 0
-0.000911 0.000000 0
-0.001289 0.000000 0
-0.001524 0.000000 0
-0.001642 0.000000 0
-0.001646 0.000000 0
-0.001581 0.000000 0
-0.001491 0.000000 0
-0.001398 0.000000 0
-0.001311 0.000000 0
-0.001232 0.000000 0
-0.001159 0.000000 0
-0.001091 0.000000 0
-0.001028 0.000000 0
-0.000967 0.000000 0
-0.000909 0.000000 0
-0.000853 0.000000 0
-0.000799 0.000000 0
-0.000747 0.000000 0
-0.000698 0.000000 0
-0.000653 0.000000 0
-0.000609 0.000000 0
-0.000567 0.000000 0
-0.000530 0.000000 0
-0.000500 0.000000 0
-0.000468 0.000000 0
-0.000433 0.000000 0
-0.000410 0.000000 0
-0.000400 0.000000 0
-0.000382 0.000000 0
-0.000347 0.000000 0
-0.000314 0.000000 0
-0.000311 0.000000 0
-0.000333 0.000000 0
-0.000327 0.000000 0
-0.000310 0.000000 0
-0.000294 0.000000 0
-0.000281 0.000000 0
-0.000271 0.000000 0
-0.000262 0.000000 0
-0.000256 0.000000 0
-0.000251 0.000000 0
-0.000247 0.000000 0
-0.000243 0.000000 0
-0.000241 0.000000 0
-0.000239 0.000000 0
-0.000237 0.000000 0
-0.000236 0.000000 0
-0.000235 0.000000 0
-0.000234 0.000000 0
-0.000233 0.000000 0
-0.000232 0.000000 0
-0.000232 0.000000 0
-0.000231 0.000000 0
-0.000231 0.000000 0
-0.000231 0.000000 0
-0.000231 0.000000 0
-0.000230 0.000000 0
-0.000230 0.000000 0
-0.000230 0.000000 0
-0.000230 0.000000 0
-0.000230 0.000000 0
-0.000230 0.000000 0
-0.000230 0.000000 0
-0.000230 0.000000 0
-0.000229 0.000000 0
-0.000229 0.000000 0
-0.000229 0.000000 0
-0.000229 0.000000 0
-0.000230 0.000000 0
-0.000230 0.000000 0
-0.000230 0.000000 0
-0.000231 0.000000 0
1.000000 -0.003407 0
1.007359 -0.011039 0
1.023335 -0.020097 0
1.049137 -0.030167 0
1.085789 -0.040643 0
1.133611 -0.050387 0
1.191353 -0.057725 0
1.255885 -0.060543 0
1.319732 -0.058310 0
1.377695 -0.053010 0
1.428793 -0.046975 0
1.473308 -0.040299 0
1.511465 -0.031328 0
1.540481 -0.017865 0
1.554163 0.001451 0
1.545658 0.023641 0
1.511949 0.043849 0
1.457000 0.060087 0
1.387708 0.071708 0
1.310252 0.077798 0
1.230904 0.077965 0
1.154784 0.071068 0
1.085488 0.061249 0
1.024474 0.059844 0
0.979766 0.052393 0
0.937815 0.035051 0
0.900737 0.026734 0
0.863958 0.021708 0
0.843666 0.012018 0
0.840411 0.002239 0
0.842608 -0.003643 0
0.847999 -0.007088 0
0.856317 -0.008991 0
0.865955 -0.009642 0
0.875636 -0.009500 0
0.884824 -0.008997 0
0.893401 -0.008390 0
0.901393 -0.007790 0
0.908850 -0.007226 0
0.915817 -0.006698 0
0.922328 -0.006205 0
0.928399 -0.005745 0
0.934038 -0.005308 0
0.939254 -0.004884 0
0.944059 -0.004472 0
0.948461 -0.004082 0
0.952468 -0.003708 0
0.956097 -0.003351 0
0.959371 -0.003025 0
0.962307 -0.002713 0
0.964926 -0.002401 0
0.967267 -0.002134 0
0.969348 -0.001924 0
0.971167 -0.001697 0
0.972758 -0.001437 0
0.974192 -0.001264 0
0.975485 -0.001203 0
0.976593 -0.001095 0
0.977479 -0.000838 0
0.978209 -0.000564 0
0.978939 -0.000508 0
0.979693 -0.000659 0
0.980366 -0.000722 0
0.980941 -0.000628 0
0.981429 -0.000514 0
0.981838 -0.000416 0
0.982180 -0.000336 0
0.982466 -0.000271 0
0.982704 -0.000220 0
0.982902 -0.000179 0
0.983068 -0.000147 0
0.983206 -0.000121 0
0.983322 -0.000100 0
0.983419 -0.000084 0
0.983500 -0.000070 0
0.983568 -0.000059 0
0.983626 -0.000050 0
0.983674 -0.000043 0
0.983715 -0.000037 0
0.983749 -0.000031 0
0.983778 -0.000027 0
0.983802 -0.000023 0
0.983823 -0.000020 0
0.983840 -0.000018 0
0.983855 -0.000016 0
0.983867 -0.000014 0
0.983878 -0.000012 0
0.983888 -0.000012 0
0.983897 -0.000011 0
0.983905 -0.000011 0
0.983914 -0.000012 0
0.983923 -0.000013 0
0.983933 -0.000015 0
0.983947 -0.000018 0
0.983965 -0.000026 0
0.983990 -0.000032 0
0.984025 -0.000056 0
0.984081 -0.000079 0
0.984164 -0.000193 0
0.984310 -0.000387 0
0.984519 -0.000464 0
1.000000 -0.007360 0
1.007407 -0.023336 0
1.023606 -0.041777 0
1.049956 -0.062452 0
1.088286 -0.084473 0
1.140035 -0.105564 0
1.204616 -0.122274 0
1.281468 -0.128380 0
1.354576 -0.121811 0
1.416414 -0.109061 0
1.467206 -0.095614 0
1.510955 -0.082673 0
1.551652 -0.067174 0
1.588243 -0.042699 0
1.612166 -0.005178 0
1.611315 0.042215 0
1.578855 0.088658 0
1.518275 0.124241 0
1.441059 0.146749 0
1.354809 0.156805 0
1.265247 0.155469 0
1.178173 0.145418 0
1.098175 0.130312 0
1.030344 0.105724 0
0.973803 0.086661 0
0.947618 0.079032 0
0.961961 0.073859 0
0.957450 0.057072 0
0.927918 0.023549 0
0.890560 0.001060 0
0.867744 -0.007586 0
0.863245 -0.013708 0
0.871381 -0.017955 0
0.882610 -0.019317 0
0.893130 -0.018868 0
0.902471 -0.017765 0
0.910948 -0.016569 0
0.918844 -0.015449 0
0.926306 -0.014425 0
0.933385 -0.013479 0
0.940085 -0.012582 0
0.946387 -0.011711 0
0.952278 -0.010857 0
0.957743 -0.010024 0
0.962780 -0.009208 0
0.967391 -0.008411 0
0.971578 -0.007639 0
0.975363 -0.006906 0
0.978767 -0.006214 0
0.981799 -0.005559 0
0.984501 -0.004964 0
0.986920 -0.004426 0
0.989046 -0.003904 0
0.990890 -0.003414 0
0.992540 -0.003029 0
0.994051 -0.002733 0
0.995344 -0.002406 0
0.996364 -0.001999 0
0.997227 -0.001621 0
0.998132 -0.001466 0
0.999090 -0.001490 0
0.999898 -0.001432 0
1.000464 -0.001254 0
1.000936 -0.001069 0
1.001349 -0.000902 0
1.001711 -0.000757 0
1.002027 -0.000633 0
1.002300 -0.000529 0
1.002535 -0.000442 0
1.002737 -0.000370 0
1.002909 -0.000310 0
1.003055 -0.000260 0
1.003179 -0.000218 0
1.003284 -0.000184 0
1.003373 -0.000155 0
1.003448 -0.000131 0
1.003512 -0.000111 0
1.003566 -0.000094 0
1.003611 -0.000080 0
1.003650 -0.000069 0
1.003683 -0.000059 0
1.003710 -0.000050 0
1.003733 -0.000043 0
1.003753 -0.000037 0
1.003770 -0.000033 0
1.003785 -0.000029 0
1.003797 -0.000026 0
1.003808 -0.000023 0
1.003818 -0.000022 0
1.003828 -0.000022 0
1.003837 -0.000023 0
1.003847 -0.000025 0
1.003858 -0.000029 0
1.003870 -0.000036 0
1.003887 -0.000048 0
1.003906 -0.000065 0
1.003938 -0.000096 0
1.003965 -0.000144 0
1.004023 -0.000234 0
1.004005 -0.000360 0
1.003958 -0.000424 0
1.000000 -0.010813 0
1.005825 -0.034642 0
1.020685 -0.062643 0
1.045554 -0.094845 0
1.084150 -0.130719 0
1.139881 -0.166715 0
1.213163 -0.199157 0
1.318196 -0.210502 0
1.408057 -0.193255 0
1.470364 -0.165640 0
1.515289 -0.141516 0
1.553178 -0.124745 0
1.594063 -0.108615 0
1.642397 -0.078377 0
1.685922 -0.021620 0
1.698499 0.056953 0
1.665028 0.136890 0
1.591240 0.197885 0
1.496984 0.235176 0
1.400031 0.253611 0
1.306883 0.254602 0
1.213579 0.238142 0
1.136126 0.209079 0
1.077680 0.184218 0
1.028280 0.135121 0
0.969769 0.046894 0
0.906282 0.016904 0
0.874598 0.055752 0
0.853090 0.078908 0
0.832834 0.062415 0
0.826755 0.023672 0
0.837186 -0.010724 0
0.860603 -0.028355 0
0.879057 -0.031391 0
0.891532 -0.029360 0
0.900996 -0.026815 0
0.909319 -0.024764 0
0.917225 -0.023149 0
0.924891 -0.021767 0
0.932297 -0.020477 0
0.939369 -0.019207 0
0.946041 -0.017939 0
0.952268 -0.016664 0
0.958021 -0.015387 0
0.963287 -0.014122 0
0.968063 -0.012881 0
0.972367 -0.011681 0
0.976230 -0.010542 0
0.979665 -0.009462 0
0.982704 -0.008448 0
0.985407 -0.007524 0
0.987786 -0.006682 0
0.989847 -0.005896 0
0.991667 -0.005193 0
0.993317 -0.004600 0
0.994749 -0.004070 0
0.995905 -0.003518 0
0.996879 -0.002980 0
0.997843 -0.002608 0
0.998844 -0.002429 0
0.999708 -0.002276 0
1.000336 -0.002035 0
1.000857 -0.001763 0
1.001309 -0.001515 0
1.001702 -0.001291 0
1.002044 -0.001096 0
1.002341 -0.000927 0
1.002597 -0.000782 0
1.002817 -0.000659 0
1.003005 -0.000555 0
1.003165 -0.000467 0
1.003302 -0.000394 0
1.003418 -0.000332 0
1.003517 -0.000280 0
1.003600 -0.000237 0
1.003671 -0.000201 0
1.003731 -0.000170 0
1.003782 -0.000145 0
1.003825 -0.000123 0
1.003861 -0.000105 0
1.003892 -0.000089 0
1.003918 -0.000077 0
1.003941 -0.000066 0
1.003959 -0.000057 0
1.003975 -0.000049 0
1.003989 -0.000043 0
1.004001 -0.000038 0
1.004011 -0.000035 0
1.004020 -0.000032 0
1.004028 -0.000032 0
1.004036 -0.000032 0
1.004043 -0.000035 0
1.004051 -0.000041 0
1.004060 -0.000050 0
1.004071 -0.000064 0
1.004083 -0.000085 0
1.004097 -0.000118 0
1.004108 -0.000165 0
1.004116 -0.000235 0
1.004091 -0.000324 0
1.004038 -0.000372 0
1.000000 -0.013182 0
1.001688 -0.044017 0
1.015035 -0.081502 0
1.035583 -0.125913 0
1.072599 -0.178797 0
1.129553 -0.234574 0
1.210777 -0.300586 0
1.380808 -0.323272 0
1.486982 -0.273977 0
1.537664 -0.216291 0
1.565648 -0.178427 0
1.583957 -0.161447 0
1.611152 -0.156392 0
1.667860 -0.134557 0
1.747449 -0.061279 0
1.797416 0.063110 0
1.779566 0.195919 0
1.694897 0.292286 0
1.564899 0.337959 0
1.421766 0.346908 0
1.289425 0.341923 0
1.180062 0.316176 0
1.080811 0.266213 0
0.996262 0.213571 0
0.967657 0.194573 0
0.932388 0.201031 0
0.874443 0.169031 0
0.856508 0.110265 0
0.876413 0.065314 0
0.911248 0.027396 0
0.932998 -0.011937 0
0.932016 -0.047555 0
0.912434 -0.059825 0
0.899522 -0.050245 0
0.896607 -0.040806 0
0.899994 -0.035552 0
0.906505 -0.032797 0
0.914344 -0.031021 0
0.922586 -0.029498 0
0.930746 -0.027957 0
0.938564 -0.026327 0
0.945888 -0.024610 0
0.952640 -0.022838 0
0.958802 -0.021044 0
0.964366 -0.019252 0
0.969343 -0.017491 0
0.973770 -0.015807 0
0.977671 -0.014206 0
0.981082 -0.012689 0
0.984090 -0.011302 0
0.986733 -0.010047 0
0.989001 -0.008868 0
0.990964 -0.007788 0
0.992730 -0.006886 0
0.994288 -0.006113 0
0.995547 -0.005322 0
0.996577 -0.004538 0
0.997556 -0.003939 0
0.998597 -0.003589 0
0.999519 -0.003333 0
1.000220 -0.002983 0
1.000766 -0.002583 0
1.001232 -0.002229 0
1.001633 -0.001916 0
1.001979 -0.001640 0
1.002280 -0.001398 0
1.002539 -0.001188 0
1.002763 -0.001007 0
1.002955 -0.000853 0
1.003120 -0.000721 0
1.003262 -0.000609 0
1.003382 -0.000515 0
1.003485 -0.000435 0
1.003573 -0.000368 0
1.003648 -0.000312 0
1.003711 -0.000264 0
1.003765 -0.000224 0
1.003811 -0.000191 0
1.003850 -0.000162 0
1.003882 -0.000138 0
1.003910 -0.000118 0
1.003934 -0.000101 0
1.003954 -0.000086 0
1.003970 -0.000074 0
1.003985 -0.000064 0
1.003997 -0.000056 0
1.004007 -0.000050 0
1.004016 -0.000045 0
1.004023 -0.000041 0
1.004030 -0.000040 0
1.004035 -0.000040 0
1.004041 -0.000043 0
1.004046 -0.000048 0
1.004051 -0.000058 0
1.004055 -0.000072 0
1.004059 -0.000093 0
1.004061 -0.000124 0
1.004058 -0.000165 0
1.004045 -0.000219 0
1.004014 -0.000285 0
1.003961 -0.000320 0
1.000000 -0.012495 0
1.000743 -0.049669 0
1.007722 -0.096534 0
1.014212 -0.152404 0
1.050012 -0.224685 0
1.097142 -0.304890 0
1.190215 -0.450410 0
1.475627 -0.486704 0
1.553140 -0.350109 0
1.544440 -0.244304 0
1.529061 -0.187807 0
1.500326 -0.170247 0
1.471267 -0.192516 0
1.494098 -0.214673 0
1.625340 -0.151174 0
1.754621 0.024838 0
1.798848 0.239411 0
1.759175 0.412554 0
1.656312 0.508310 0
1.506247 0.529086 0
1.330841 0.496308 0
1.178004 0.446758 0
1.043617 0.392882 0
0.898767 0.297374 0
0.855668 0.198997 0
0.877483 0.140110 0
0.895870 0.092785 0
0.896037 0.053783 0
0.899227 0.024169 0
0.910585 0.005831 0
0.918183 0.002906 0
0.912887 0.009840 0
0.894311 0.004139 0
0.884004 -0.015563 0
0.883928 -0.029832 0
0.889983 -0.036712 0
0.898895 -0.039114 0
0.908846 -0.039230 0
0.918914 -0.038169 0
0.928617 -0.036454 0
0.937696 -0.034349 0
0.946013 -0.032016 0
0.953512 -0.029579 0
0.960192 -0.027113 0
0.966111 -0.024664 0
0.971322 -0.022286 0
0.975839 -0.020010 0
0.979723 -0.017854 0
0.983104 -0.015882 0
0.986026 -0.014101 0
0.988485 -0.012437 0
0.990605 -0.010914 0
0.992511 -0.009627 0
0.994154 -0.008518 0
0.995454 -0.007420 0
0.996495 -0.006360 0
0.997562 -0.005529 0
0.998632 -0.005002 0
0.999589 -0.004572 0
1.000299 -0.004055 0
1.000830 -0.003525 0
1.001288 -0.003049 0
1.001681 -0.002632 0
1.002018 -0.002264 0
1.002309 -0.001941 0
1.002559 -0.001658 0
1.002775 -0.001412 0
1.002961 -0.001201 0
1.003122 -0.001019 0
1.003260 -0.000864 0
1.003378 -0.000732 0
1.003480 -0.000620 0
1.003568 -0.000525 0
1.003642 -0.000445 0
1.003706 -0.000377 0
1.003760 -0.000320 0
1.003806 -0.000272 0
1.003846 -0.000231 0
1.003879 -0.000197 0
1.003907 -0.000168 0
1.003931 -0.000143 0
1.003951 -0.000122 0
1.003969 -0.000105 0
1.003983 -0.000090 0
1.003995 -0.000077 0
1.004005 -0.000067 0
1.004013 -0.000059 0
1.004020 -0.000053 0
1.004026 -0.000049 0
1.004031 -0.000046 0
1.004034 -0.000046 0
1.004037 -0.000048 0
1.004039 -0.000053 0
1.004040 -0.000061 0
1.004039 -0.000074 0
1.004035 -0.000093 0
1.004028 -0.000118 0
1.004015 -0.000152 0
1.003992 -0.000193 0
1.003955 -0.000242 0
1.003902 -0.000268 0
1.000000 -0.013919 0
1.002639 -0.051728 0
0.999914 -0.094964 0
0.995529 -0.168198 0
1.022995 -0.261722 0
1.029257 -0.374772 0
1.168081 -0.679067 0
1.481819 -0.686194 0
1.363384 -0.342788 0
1.222820 -0.192211 0
1.120197 -0.134311 0
1.074059 -0.103651 0
0.842217 -0.150162 0
0.793270 -0.288627 0
1.083368 -0.321800 0
1.384487 -0.110396 0
1.495593 0.191367 0
1.523747 0.434825 0
1.520732 0.590890 0
1.477122 0.672382 0
1.398057 0.670169 0
1.270576 0.603402 0
1.127487 0.545451 0
1.011667 0.401523 0
0.917534 0.215860 0
0.835249 0.160831 0
0.779556 0.150479 0
0.757440 0.106909 0
0.756154 0.050767 0
0.760498 0.008442 0
0.769088 -0.014239 0
0.786600 -0.023682 0
0.814646 -0.030941 0
0.838029 -0.039861 0
0.856508 -0.046785 0
0.872637 -0.050519 0
0.887602 -0.051660 0
0.901646 -0.051040 0
0.914709 -0.049269 0
0.926676 -0.046740 0
0.937465 -0.043723 0
0.947048 -0.040427 0
0.955428 -0.037017 0
0.962666 -0.033644 0
0.968892 -0.030383 0
0.974243 -0.027220 0
0.978797 -0.024209 0
0.982631 -0.021473 0
0.985814 -0.018994 0
0.988478 -0.016684 0
0.990784 -0.014628 0
0.992796 -0.012896 0
0.994416 -0.011338 0
0.995683 -0.009831 0
0.996854 -0.008457 0
0.997935 -0.007432 0
0.999050 -0.006676 0
0.999963 -0.005969 0
1.000617 -0.005258 0
1.001111 -0.004576 0
1.001528 -0.003974 0
1.001888 -0.003436 0
1.002196 -0.002962 0
1.002458 -0.002546 0
1.002683 -0.002183 0
1.002876 -0.001867 0
1.003043 -0.001593 0
1.003187 -0.001356 0
1.003312 -0.001153 0
1.003420 -0.000980 0
1.003513 -0.000832 0
1.003593 -0.000706 0
1.003663 -0.000599 0
1.003722 -0.000509 0
1.003773 -0.000432 0
1.003817 -0.000367 0
1.003855 -0.000312 0
1.003887 -0.000265 0
1.003914 -0.000226 0
1.003937 -0.000192 0
1.003956 -0.000164 0
1.003972 -0.000140 0
1.003986 -0.000120 0
1.003998 -0.000103 0
1.004007 -0.000089 0
1.004015 -0.000077 0
1.004021 -0.000067 0
1.004026 -0.000059 0
1.004030 -0.000054 0
1.004033 -0.000050 0
1.004034 -0.000049 0
1.004035 -0.000050 0
1.004033 -0.000053 0
1.004030 -0.000060 0
1.004025 -0.000070 0
1.004016 -0.000085 0
1.004002 -0.000105 0
1.003982 -0.000131 0
1.003953 -0.000161 0
1.003913 -0.000197 0
1.003859 -0.000216 0
1.000000 -0.015125 0
1.000944 -0.049570 0
0.988676 -0.089416 0
0.985902 -0.175478 0
0.970664 -0.258406 0
0.957278 -0.449970 0
1.026996 -0.902966 0
0.716257 -0.590895 0
-0.003071 0.000000 0
-0.002461 0.000000 0
0.385052 -0.037929 0
0.333484 0.107734 0
0.183968 0.088276 0
0.187537 -0.455822 0
0.381128 -0.742389 0
0.763527 -0.387385 0
0.916482 0.100154 0
1.054825 0.387419 0
1.151309 0.554938 0
1.191645 0.651764 0
1.171856 0.702856 0
1.124529 0.717330 0
1.092649 0.651793 0
1.056947 0.507329 0
0.894751 0.375417 0
0.764183 0.278090 0
0.733737 0.170596 0
0.742092 0.077187 0
0.746363 0.021112 0
0.744543 -0.007102 0
0.746574 -0.023194 0
0.758641 -0.035717 0
0.780464 -0.047289 0
0.805658 -0.057425 0
0.830733 -0.064439 0
0.854338 -0.067806 0
0.875804 -0.068123 0
0.894868 -0.066337 0
0.911625 -0.063200 0
0.926291 -0.059211 0
0.939019 -0.054721 0
0.949939 -0.049979 0
0.959194 -0.045197 0
0.966888 -0.040578 0
0.973190 -0.036242 0
0.978419 -0.032192 0
0.982872 -0.028399 0
0.986558 -0.024873 0
0.989383 -0.021731 0
0.991610 -0.019072 0
0.993596 -0.016757 0
0.995371 -0.014548 0
0.996645 -0.012516 0
0.997761 -0.010959 0
0.998903 -0.009674 0
0.999902 -0.008558 0
1.000670 -0.007559 0
1.001234 -0.006571 0
1.001650 -0.005722 0
1.002003 -0.004969 0
1.002293 -0.004304 0
1.002539 -0.003718 0
1.002749 -0.003204 0
1.002928 -0.002754 0
1.003081 -0.002361 0
1.003214 -0.002021 0
1.003329 -0.001726 0
1.003429 -0.001472 0
1.003516 -0.001253 0
1.003593 -0.001067 0
1.003659 -0.000907 0
1.003717 -0.000772 0
1.003767 -0.000656 0
1.003811 -0.000558 0
1.003848 -0.000474 0
1.003881 -0.000404 0
1.003909 -0.000343 0
1.003932 -0.000292 0
1.003952 -0.000249 0
1.003969 -0.000212 0
1.003984 -0.000181 0
1.003996 -0.000154 0
1.004006 -0.000132 0
1.004014 -0.000113 0
1.004021 -0.000097 0
1.004027 -0.000084 0
1.004031 -0.000073 0
1.004034 -0.000064 0
1.004036 -0.000057 0
1.004036 -0.000052 0
1.004036 -0.000049 0
1.004034 -0.000049 0
1.004030 -0.000050 0
1.004023 -0.000054 0
1.004014 -0.000062 0
1.004001 -0.000072 0
1.003983 -0.000087 0
1.003958 -0.000105 0
1.003925 -0.000126 0
1.003883 -0.000150 0
1.003829 -0.000163 0
1.000000 -0.014851 0
1.007284 -0.040389 0
0.968922 -0.079914 0
0.984150 -0.150178 0
0.881741 -0.233091 0
0.921727 -0.431096 0
0.599907 -0.529147 0
0.000000 0.005733 0
-0.579217 0.241073 0
-0.467039 0.000000 0
0.000000 0.000000 0
-0.035829 0.099534 0
0.101339 -0.004212 0
0.077311 -0.485785 0
0.037347 -0.897786 0
0.137189 -0.645747 0
0.217235 -0.099929 0
0.537260 0.200001 0
0.722860 0.454074 0
0.826966 0.651838 0
0.890748 0.737288 0
0.952745 0.682612 0
0.950173 0.613036 0
0.866573 0.599423 0
0.783513 0.508626 0
0.764646 0.321848 0
0.747926 0.172573 0
0.705580 0.094285 0
0.665916 0.048318 0
0.649699 0.008232 0
0.659629 -0.028336 0
0.688605 -0.057570 0
0.727223 -0.077957 0
0.767657 -0.090129 0
0.805573 -0.095465 0
0.839355 -0.095589 0
0.868457 -0.092189 0
0.892832 -0.086861 0
0.912989 -0.080692 0
0.929858 -0.074134 0
0.944076 -0.067372 0
0.956027 -0.060603 0
0.965972 -0.053967 0
0.973712 -0.047641 0
0.979528 -0.041915 0
0.984192 -0.036902 0
0.988331 -0.032349 0
0.991655 -0.027986 0
0.993839 -0.024048 0
0.995536 -0.020899 0
0.997198 -0.018390 0
0.998507 -0.015946 0
0.999602 -0.013730 0
1.000556 -0.012091 0
1.001258 -0.010599 0
1.001829 -0.009201 0
1.002183 -0.008010 0
1.002486 -0.006952 0
1.002724 -0.006029 0
1.002917 -0.005221 0
1.003074 -0.004513 0
1.003204 -0.003894 0
1.003314 -0.003353 0
1.003407 -0.002881 0
1.003488 -0.002472 0
1.003560 -0.002117 0
1.003622 -0.001810 0
1.003678 -0.001546 0
1.003728 -0.001319 0
1.003773 -0.001125 0
1.003812 -0.000958 0
1.003847 -0.000816 0
1.003878 -0.000695 0
1.003905 -0.000592 0
1.003929 -0.000504 0
1.003949 -0.000429 0
1.003966 -0.000366 0
1.003981 -0.000311 0
1.003994 -0.000265 0
1.004005 -0.000226 0
1.004014 -0.000193 0
1.004021 -0.000164 0
1.004028 -0.000140 0
1.004033 -0.000120 0
1.004036 -0.000103 0
1.004039 -0.000088 0
1.004041 -0.000076 0
1.004042 -0.000066 0
1.004042 -0.000058 0
1.004041 -0.000052 0
1.004038 -0.000048 0
1.004034 -0.000046 0
1.004028 -0.000045 0
1.004019 -0.000046 0
1.004007 -0.000050 0
1.003991 -0.000056 0
1.003970 -0.000064 0
1.003942 -0.000075 0
1.003907 -0.000088 0
1.003863 -0.000103 0
1.003809 -0.000110 0
1.000000 -0.022395 0
0.978518 -0.018473 0
0.982117 -0.066273 0
0.937571 -0.088289 0
0.890054 -0.195974 0
0.801348 -0.168126 0
0.482756 -0.060208 0
0.372958 -0.069962 0
0.000000 0.000000 0
0.000000 0.000000 0
0.000000 0.000000 0
0.000000 0.000000 0
0.091038 -0.033358 0
-0.008124 -0.391826 0
-0.141374 -0.802264 0
-0.430763 -0.567269 0
-0.339502 -0.299913 0
0.067367 -0.118203 0
0.265372 0.265235 0
0.476142 0.483880 0
0.652200 0.577081 0
0.711263 0.657908 0
0.669471 0.737968 0
0.661706 0.673992 0
0.717994 0.477346 0
0.699583 0.313679 0
0.612382 0.229665 0
0.544548 0.159199 0
0.530059 0.076996 0
0.554579 -0.000813 0
0.602202 -0.062099 0
0.660532 -0.103309 0
0.718683 -0.126341 0
0.769873 -0.135774 0
0.812723 -0.136136 0
0.848903 -0.130689 0
0.879132 -0.121599 0
0.904308 -0.110870 0
0.924663 -0.100226 0
0.940955 -0.090298 0
0.954813 -0.080891 0
0.967198 -0.071874 0
0.977243 -0.062883 0
0.983686 -0.054136 0
0.988345 -0.046723 0
0.992564 -0.040996 0
0.995730 -0.035863 0
0.997901 -0.030382 0