# vtk DataFile Version 2.0
generated by CFD-lab course output (written by Tobias Neckel) 
ASCII

DATASET STRUCTURED_GRID
DIMENSIONS  101 21 1 
POINTS 2121 float

0.000000 0.000000 0
0.100000 0.000000 0
0.200000 0.000000 0
0.300000 0.000000 0
0.400000 0.000000 0
0.500000 0.000000 0
0.600000 0.000000 0
0.700000 0.000000 0
0.800000 0.000000 0
0.900000 0.000000 0
1.000000 0.000000 0
1.100000 0.000000 0
1.200000 0.000000 0
1.300000 0.000000 0
1.400000 0.000000 0
1.500000 0.000000 0
1.600000 0.000000 0
1.700000 0.000000 0
1.800000 0.000000 0
1.900000 0.000000 0
2.000000 0.000000 0
2.100000 0.000000 0
2.200000 0.000000 0
2.300000 0.000000 0
2.400000 0.000000 0
2.500000 0.000000 0
2.600000 0.000000 0
2.700000 0.000000 0
2.800000 0.000000 0
2.900000 0.000000 0
3.000000 0.000000 0
3.100000 0.000000 0
3.200000 0.000000 0
3.300000 0.000000 0
3.400000 0.000000 0
3.500000 0.000000 0
3.600000 0.000000 0
3.700000 0.000000 0
3.800000 0.000000 0
3.900000 0.000000 0
4.000000 0.000000 0
4.100000 0.000000 0
4.200000 0.000000 0
4.300000 0.000000 0
4.400000 0.000000 0
4.500000 0.000000 0
4.600000 0.000000 0
4.700000 0.000000 0
4.800000 0.000000 0
4.900000 0.000000 0
5.000000 0.000000 0
5.100000 0.000000 0
5.200000 0.000000 0
5.300000 0.000000 0
5.400000 0.000000 0
5.500000 0.000000 0
5.600000 0.000000 0
5.700000 0.000000 0
5.800000 0.000000 0
5.900000 0.000000 0
6.000000 0.000000 0
6.100000 0.000000 0
6.200000 0.000000 0
6.300000 0.000000 0
6.400000 0.000000 0
6.500000 0.000000 0
6.600000 0.000000 0
6.700000 0.000000 0
6.800000 0.000000 0
6.900000 0.000000 0
7.000000 0.000000 0
7.100000 0.000000 0
7.200000 0.000000 0
7.300000 0.000000 0
7.400000 0.000000 0
7.500000 0.000000 0
7.600000 0.000000 0
7.700000 0.000000 0
7.800000 0.000000 0
7.900000 0.000000 0
8.000000 0.000000 0
8.100000 0.000000 0
8.200000 0.000000 0
8.300000 0.000000 0
8.400000 0.000000 0
8.500000 0.000000 0
8.600000 0.000000 0
8.700000 0.000000 0
8.800000 0.000000 0
8.900000 0.000000 0
9.000000 0.000000 0
9.100000 0.000000 0
9.200000 0.000000 0
9.300000 0.000000 0
9.400000 0.000000 0
9.500000 0.000000 0
9.600000 0.000000 0
9.700000 0.000000 0
9.800000 0.000000 0
9.900000 0.000000 0
10.000000 0.000000 0
0.000000 0.100000 0
0.100000 0.100000 0
0.200000 0.100000 0
0.300000 0.100000 0
0.400000 0.100000 0
0.500000 0.100000 0
0.600000 0.100000 0
0.700000 0.100000 0
0.800000 0.100000 0
0.900000 0.100000 0
1.000000 0.100000 0
1.100000 0.100000 0
1.200000 0.100000 0
1.300000 0.100000 0
1.400000 0.100000 0
1.500000 0.100000 0
1.600000 0.100000 0
1.700000 0.100000 0
1.800000 0.100000 0
1.900000 0.100000 0
2.000000 0.100000 0
2.100000 0.100000 0
2.200000 0.100000 0
2.300000 0.100000 0
2.400000 0.100000 0
2.500000 0.100000 0
2.600000 0.100000 0
2.700000 0.100000 0
2.800000 0.100000 0
2.900000 0.100000 0
3.000000 0.100000 0
3.100000 0.100000 0
3.200000 0.100000 0
3.300000 0.100000 0
3.400000 0.100000 0
3.500000 0.100000 0
3.600000 0.100000 0
3.700000 0.100000 0
3.800000 0.100000 0
3.900000 0.100000 0
4.000000 0.100000 0
4.100000 0.100000 0
4.200000 0.100000 0
4.300000 0.100000 0
4.400000 0.100000 0
4.500000 0.100000 0
4.600000 0.100000 0
4.700000 0.100000 0
4.800000 0.100000 0
4.900000 0.100000 0
5.000000 0.100000 0
5.100000 0.100000 0
5.200000 0.100000 0
5.300000 0.100000 0
5.400000 0.100000 0
5.500000 0.100000 0
5.600000 0.100000 0
5.700000 0.100000 0
5.800000 0.100000 0
5.900000 0.100000 0
6.000000 0.100000 0
6.100000 0.100000 0
6.200000 0.100000 0
6.300000 0.100000 0
6.400000 0.100000 0
6.500000 0.100000 0
6.600000 0.100000 0
6.700000 0.100000 0
6.800000 0.100000 0
6.900000 0.100000 0
7.000000 0.100000 0
7.100000 0.100000 0
7.200000 0.100000 0
7.300000 0.100000 0
7.400000 0.100000 0
7.500000 0.100000 0
7.600000 0.100000 0
7.700000 0.100000 0
7.800000 0.100000 0
7.900000 0.100000 0
8.000000 0.100000 0
8.100000 0.100000 0
8.200000 0.100000 0
8.300000 0.100000 0
8.400000 0.100000 0
8.500000 0.100000 0
8.600000 0.100000 0
8.700000 0.100000 0
8.800000 0.100000 0
8.900000 0.100000 0
9.000000 0.100000 0
9.100000 0.100000 0
9.200000 0.100000 0
9.300000 0.100000 0
9.400000 0.100000 0
9.500000 0.100000 0
9.600000 0.100000 0
9.700000 0.100000 0
9.800000 0.100000 0
9.900000 0.100000 0
10.000000 0.100000 0
0.000000 0.200000 0
0.100000 0.200000 0
0.200000 0.200000 0
0.300000 0.200000 0
0.400000 0.200000 0
0.500000 0.200000 0
0.600000 0.200000 0
0.700000 0.200000 0
0.800000 0.200000 0
0.900000 0.200000 0
1.000000 0.200000 0
1.100000 0.200000 0
1.200000 0.200000 0
1.300000 0.200000 0
1.400000 0.200000 0
1.500000 0.200000 0
1.600000 0.200000 0
1.700000 0.200000 0
1.800000 0.200000 0
1.900000 0.200000 0
2.000000 0.200000 0
2.100000 0.200000 0
2.200000 0.200000 0
2.300000 0.200000 0
2.400000 0.200000 0
2.500000 0.200000 0
2.600000 0.200000 0
2.700000 0.200000 0
2.800000 0.200000 0
2.900000 0.200000 0
3.000000 0.200000 0
3.100000 0.200000 0
3.200000 0.200000 0
3.300000 0.200000 0
3.400000 0.200000 0
3.500000 0.200000 0
3.600000 0.200000 0
3.700000 0.200000 0
3.800000 0.200000 0
3.900000 0.200000 0
4.000000 0.200000 0
4.100000 0.200000 0
4.200000 0.200000 0
4.300000 0.200000 0
4.400000 0.200000 0
4.500000 0.200000 0
4.600000 0.200000 0
4.700000 0.200000 0
4.800000 0.200000 0
4.900000 0.200000 0
5.000000 0.200000 0
5.100000 0.200000 0
5.200000 0.200000 0
5.300000 0.200000 0
5.400000 0.200000 0
5.500000 0.200000 0
5.600000 0.200000 0
5.700000 0.200000 0
5.800000 0.200000 0
5.900000 0.200000 0
6.000000 0.200000 0
6.100000 0.200000 0
6.200000 0.200000 0
6.300000 0.200000 0
6.400000 0.200000 0
6.500000 0.200000 0
6.600000 0.200000 0
6.700000 0.200000 0
6.800000 0.200000 0
6.900000 0.200000 0
7.000000 0.200000 0
7.100000 0.200000 0
7.200000 0.200000 0
7.300000 0.200000 0
7.400000 0.200000 0
7.500000 0.200000 0
7.600000 0.200000 0
7.700000 0.200000 0
7.800000 0.200000 0
7.900000 0.200000 0
8.000000 0.200000 0
8.100000 0.200000 0
8.200000 0.200000 0
8.300000 0.200000 0
8.400000 0.200000 0
8.500000 0.200000 0
8.600000 0.200000 0
8.700000 0.200000 0
8.800000 0.200000 0
8.900000 0.200000 0
9.000000 0.200000 0
9.100000 0.200000 0
9.200000 0.200000 0
9.300000 0.200000 0
9.400000 0.200000 0
9.500000 0.200000 0
9.600000 0.200000 0
9.700000 0.200000 0
9.800000 0.200000 0
9.900000 0.200000 0
10.000000 0.200000 0
0.000000 0.300000 0
0.100000 0.300000 0
0.200000 0.300000 0
0.300000 0.300000 0
0.400000 0.300000 0
0.500000 0.300000 0
0.600000 0.300000 0
0.700000 0.300000 0
0.800000 0.300000 0
0.900000 0.300000 0
1.000000 0.300000 0
1.100000 0.300000 0
1.200000 0.300000 0
1.300000 0.300000 0
1.400000 0.300000 0
1.500000 0.300000 0
1.600000 0.300000 0
1.700000 0.300000 0
1.800000 0.300000 0
1.900000 0.300000 0
2.000000 0.300000 0
2.100000 0.300000 0
2.200000 0.300000 0
2.300000 0.300000 0
2.400000 0.300000 0
2.500000 0.300000 0
2.600000 0.300000 0
2.700000 0.300000 0
2.800000 0.300000 0
2.900000 0.300000 0
3.000000 0.300000 0
3.100000 0.300000 0
3.200000 0.300000 0
3.300000 0.300000 0
3.400000 0.300000 0
3.500000 0.300000 0
3.600000 0.300000 0
3.700000 0.300000 0
3.800000 0.300000 0
3.900000 0.300000 0
4.000000 0.300000 0
4.100000 0.300000 0
4.200000 0.300000 0
4.300000 0.300000 0
4.400000 0.300000 0
4.500000 0.300000 0
4.600000 0.300000 0
4.700000 0.300000 0
4.800000 0.300000 0
4.900000 0.300000 0
5.000000 0.300000 0
5.100000 0.300000 0
5.200000 0.300000 0
5.300000 0.300000 0
5.400000 0.300000 0
5.500000 0.300000 0
5.600000 0.300000 0
5.700000 0.300000 0
5.800000 0.300000 0
5.900000 0.300000 0
6.000000 0.300000 0
6.100000 0.300000 0
6.200000 0.300000 0
6.300000 0.300000 0
6.400000 0.300000 0
6.500000 0.300000 0
6.600000 0.300000 0
6.700000 0.300000 0
6.800000 0.300000 0
6.900000 0.300000 0
7.000000 0.300000 0
7.100000 0.300000 0
7.200000 0.300000 0
7.300000 0.300000 0
7.400000 0.300000 0
7.500000 0.300000 0
7.600000 0.300000 0
7.700000 0.300000 0
7.800000 0.300000 0
7.900000 0.300000 0
8.000000 0.300000 0
8.100000 0.300000 0
8.200000 0.300000 0
8.300000 0.300000 0
8.400000 0.300000 0
8.500000 0.300000 0
8.600000 0.300000 0
8.700000 0.300000 0
8.800000 0.300000 0
8.900000 0.300000 0
9.000000 0.300000 0
9.100000 0.300000 0
9.200000 0.300000 0
9.300000 0.300000 0
9.400000 0.300000 0
9.500000 0.300000 0
9.600000 0.300000 0
9.700000 0.300000 0
9.800000 0.300000 0
9.900000 0.300000 0
10.000000 0.300000 0
0.000000 0.400000 0
0.100000 0.400000 0
0.200000 0.400000 0
0.300000 0.400000 0
0.400000 0.400000 0
0.500000 0.400000 0
0.600000 0.400000 0
0.700000 0.400000 0
0.800000 0.400000 0
0.900000 0.400000 0
1.000000 0.400000 0
1.100000 0.400000 0
1.200000 0.400000 0
1.300000 0.400000 0
1.400000 0.400000 0
1.500000 0.400000 0
1.600000 0.400000 0
1.700000 0.400000 0
1.800000 0.400000 0
1.900000 0.400000 0
2.000000 0.400000 0
2.100000 0.400000 0
2.200000 0.400000 0
2.300000 0.400000 0
2.400000 0.400000 0
2.500000 0.400000 0
2.600000 0.400000 0
2.700000 0.400000 0
2.800000 0.400000 0
2.900000 0.400000 0
3.000000 0.400000 0
3.100000 0.400000 0
3.200000 0.400000 0
3.300000 0.400000 0
3.400000 0.400000 0
3.500000 0.400000 0
3.600000 0.400000 0
3.700000 0.400000 0
3.800000 0.400000 0
3.900000 0.400000 0
4.000000 0.400000 0
4.100000 0.400000 0
4.200000 0.400000 0
4.300000 0.400000 0
4.400000 0.400000 0
4.500000 0.400000 0
4.600000 0.400000 0
4.700000 0.400000 0
4.800000 0.400000 0
4.900000 0.400000 0
5.000000 0.400000 0
5.100000 0.400000 0
5.200000 0.400000 0
5.300000 0.400000 0
5.400000 0.400000 0
5.500000 0.400000 0
5.600000 0.400000 0
5.700000 0.400000 0
5.800000 0.400000 0
5.900000 0.400000 0
6.000000 0.400000 0
6.100000 0.400000 0
6.200000 0.400000 0
6.300000 0.400000 0
6.400000 0.400000 0
6.500000 0.400000 0
6.600000 0.400000 0
6.700000 0.400000 0
6.800000 0.400000 0
6.900000 0.400000 0
7.000000 0.400000 0
7.100000 0.400000 0
7.200000 0.400000 0
7.300000 0.400000 0
7.400000 0.400000 0
7.500000 0.400000 0
7.600000 0.400000 0
7.700000 0.400000 0
7.800000 0.400000 0
7.900000 0.400000 0
8.000000 0.400000 0
8.100000 0.400000 0
8.200000 0.400000 0
8.300000 0.400000 0
8.400000 0.400000 0
8.500000 0.400000 0
8.600000 0.400000 0
[...]
POINT_DATA 2121 

VECTORS velocity float
0.500000 0.000000 0
-0.000006 0.000000 0
-0.000019 0.000000 0
-0.000046 0.000000 0
-0.000076 0.000000 0
-0.000079 0.000000 0
-0.000023 0.000000 0
0.000134 0.000000 0
0.000424 0.000000 0
0.000809 0.000000 0
0.001271 0.000000 0
0.001775 0.000000 0
0.002240 0.000000 0
0.002583 0.000000 0
0.002755 0.000000 0
0.002742 0.000000 0
0.002540 0.000000 0
0.002123 0.000000 0
0.001463 0.000000 0
0.000561 0.000000 0
-0.000540 0.000000 0
-0.001738 0.000000 0
-0.002771 0.000000 0
-0.003412 0.000000 0
-0.003571 0.000000 0
-0.003208 0.000000 0
-0.002383 0.000000 0
-0.001269 0.000000 0
-0.000069 0.000000 0
0.001075 0.000000 0
0.002051 0.000000 0
0.002528 0.000000 0
0.001085 0.000000 0
0.004449 0.000000 0
0.020581 0.000000 0
0.020346 0.000000 0
0.007216 0.000000 0
-0.007425 0.000000 0
-0.004568 0.000000 0
0.006123 0.000000 0
0.009517 0.000000 0
0.006065 0.000000 0
0.002553 0.000000 0
0.001552 0.000000 0
0.000852 0.000000 0
-0.001370 0.000000 0
-0.005085 0.000000 0
-0.009367 0.000000 0
-0.013433 0.000000 0
-0.016314 0.000000 0
-0.016884 0.000000 0
-0.014143 0.000000 0
-0.009788 0.000000 0
-0.010743 0.000000 0
-0.011625 0.000000 0
-0.012159 0.000000 0
-0.012044 0.000000 0
-0.011398 0.000000 0
-0.010116 0.000000 0
-0.007713 0.000000 0
-0.004979 0.000000 0
-0.001724 0.000000 0
0.000803 0.000000 0
0.001713 0.000000 0
0.003701 0.000000 0
0.011454 0.000000 0
0.023889 0.000000 0
0.034574 0.000000 0
0.020255 0.000000 0
0.005069 0.000000 0
-0.001192 0.000000 0
-0.003751 0.000000 0
-0.002304 0.000000 0
-0.001364 0.000000 0
-0.000625 0.000000 0
-0.000182 0.000000 0
-0.000071 0.000000 0
-0.000124 0.000000 0
-0.000224 0.000000 0
-0.000331 0.000000 0
-0.000435 0.000000 0
-0.000532 0.000000 0
-0.000613 0.000000 0
-0.000677 0.000000 0
-0.000731 0.000000 0
-0.000779 0.000000 0
-0.000820 0.000000 0
-0.000848 0.000000 0
-0.000857 0.000000 0
-0.000847 0.000000 0
-0.000824 0.000000 0
-0.000796 0.000000 0
-0.000772 0.000000 0
-0.000754 0.000000 0
-0.000737 0.000000 0
-0.000717 0.000000 0
-0.000681 0.000000 0
-0.000648 0.000000 0
-0.000601 0.000000 0
-0.000575 0.000000 0
-0.000567 0.000000 0
1.000000 -0.004548 0
1.009671 -0.014162 0
1.029690 -0.024621 0
1.060711 -0.035495 0
1.103122 -0.046045 0
1.156429 -0.054928 0
1.218299 -0.060276 0
1.284525 -0.059695 0
1.346094 -0.052186 0
1.395378 -0.039580 0
1.429217 -0.024370 0
1.446491 -0.008196 0
1.447000 0.007835 0
1.431405 0.022721 0
1.401648 0.035714 0
1.359732 0.046192 0
1.308369 0.053221 0
1.251434 0.055616 0
1.194258 0.052283 0
1.143363 0.042821 0
1.105538 0.028201 0
1.085161 0.010448 0
1.086023 -0.006559 0
1.103465 -0.018634 0
1.130276 -0.024003 0
1.159092 -0.022404 0
1.182563 -0.014642 0
1.194784 -0.002643 0
1.192790 0.011141 0
1.176316 0.024559 0
1.146714 0.035760 0
1.106950 0.038441 0
1.060941 0.019148 0
0.999990 0.085044 0
0.890442 0.245457 0
0.754669 0.276596 0
0.665382 0.116256 0
0.653481 -0.049679 0
0.583631 -0.059937 0
0.450339 0.023961 0
0.319792 0.070493 0
0.237787 0.045911 0
0.220995 -0.000304 0
0.226903 -0.015904 0
0.219688 -0.012433 0
0.205887 -0.018524 0
0.218981 -0.041512 0
0.268280 -0.075304 0
0.351262 -0.109827 0
0.463428 -0.134317 0
0.596170 -0.139749 0
0.742626 -0.119555 0
0.886503 -0.090118 0
1.007178 -0.082579 0
1.098564 -0.087317 0
1.180959 -0.087273 0
1.264869 -0.085127 0
1.344450 -0.078865 0
1.415453 -0.067400 0
1.473211 -0.049526 0
1.513145 -0.026179 0
1.531253 -0.000422 0
1.525206 0.020102 0
1.495207 0.031836 0
1.440938 0.052057 0
1.358719 0.105576 0
1.243816 0.186532 0
1.110183 0.241176 0
0.998387 0.177996 0
0.940642 0.059625 0
0.916986 0.000291 0
0.898075 -0.022812 0
0.864858 -0.022755 0
0.841501 -0.011154 0
0.837226 -0.004888 0
0.834225 -0.001181 0
0.831174 0.000109 0
0.829698 -0.000068 0
0.829906 -0.000732 0
0.831312 -0.001484 0
0.833440 -0.002223 0
0.836018 -0.002897 0
0.839025 -0.003447 0
0.842629 -0.003861 0
0.847003 -0.004188 0
0.852127 -0.004482 0
0.857741 -0.004732 0
0.863473 -0.004874 0
0.869019 -0.004856 0
0.874260 -0.004672 0
0.879258 -0.004364 0
0.884150 -0.004000 0
0.889017 -0.003650 0
0.893755 -0.003318 0
0.898104 -0.002970 0
0.901792 -0.002547 0
0.904583 -0.001946 0
0.906616 -0.001432 0
0.907866 -0.000689 0
0.908702 -0.000625 0
0.909832 -0.001138 0
1.000000 -0.009680 0
1.009834 -0.029703 0
1.030322 -0.051048 0
1.062314 -0.073441 0
1.106988 -0.095725 0
1.165006 -0.115183 0
1.234475 -0.128101 0
1.314165 -0.127800 0
1.387128 -0.110857 0
1.441772 -0.083126 0
1.477730 -0.051116 0
1.495681 -0.017785 0
1.495637 0.015084 0
1.477595 0.045350 0
1.445299 0.071672 0
1.400225 0.093278 0
1.344382 0.108297 0
1.280912 0.114110 0
1.215302 0.108070 0
1.155805 0.088719 0
1.112521 0.058201 0
1.087849 0.019514 0
1.095330 -0.018305 0
1.123207 -0.044254 0
1.160915 -0.055627 0
1.200826 -0.052288 0
1.234069 -0.035692 0
1.252868 -0.010227 0
1.254160 0.018468 0
1.238811 0.046077 0
1.209785 0.069368 0
1.170220 0.085775 0
1.115746 0.106962 0
1.026158 0.170502 0
0.992668 0.245325 0
1.025873 0.225065 0
1.049523 0.101193 0
1.012272 0.081756 0
0.809104 0.203149 0
0.613037 0.263847 0
0.525794 0.212561 0
0.468310 0.098806 0
0.375299 0.010893 0
0.266804 0.001317 0
0.174972 0.021026 0
0.109169 0.000717 0
0.100548 -0.062383 0
0.143371 -0.132270 0
0.212577 -0.195137 0
0.289240 -0.244897 0
0.376224 -0.279187 0
0.488093 -0.290323 0
0.637275 -0.264542 0
0.798160 -0.212051 0
0.928199 -0.173771 0
1.028317 -0.166296 0
1.105538 -0.163482 0
1.176581 -0.150576 0
1.241212 -0.128753 0
1.294962 -0.097684 0
1.332360 -0.058035 0
1.348199 -0.012054 0
1.345368 0.036053 0
1.325421 0.084275 0
1.274246 0.136495 0
1.197193 0.197128 0
1.129370 0.248542 0
1.110587 0.245435 0
1.133940 0.169548 0
1.127076 0.081408 0
1.109753 0.042573 0
1.077962 0.052133 0
1.024742 0.056580 0
0.973145 0.027638 0
0.924517 0.007282 0
0.891616 0.006058 0
0.875300 0.004533 0
0.870476 0.001275 0
0.870293 -0.001608 0
0.871501 -0.003528 0
0.873246 -0.004699 0
0.875628 -0.005579 0
0.878929 -0.006605 0
0.883269 -0.007971 0
0.888516 -0.009492 0
0.894389 -0.010732 0
0.900613 -0.011340 0
0.907025 -0.011271 0
0.913590 -0.010780 0
0.920312 -0.010233 0
0.927144 -0.009885 0
0.933919 -0.009753 0
0.940362 -0.009599 0
0.946164 -0.009081 0
0.951154 -0.008031 0
0.955317 -0.006473 0
0.958710 -0.004818 0
0.961626 -0.003278 0
0.963826 -0.002079 0
0.966263 -0.001960 0
0.967523 -0.002248 0
1.000000 -0.014390 0
1.008452 -0.044493 0
1.027883 -0.077106 0
1.059059 -0.112165 0
1.104882 -0.148740 0
1.168321 -0.182417 0
1.247779 -0.209438 0
1.356938 -0.212351 0
1.447011 -0.179794 0
1.507255 -0.130184 0
1.543088 -0.078281 0
1.559829 -0.026103 0
1.558803 0.025920 0
1.539572 0.073058 0
1.502584 0.113083 0
1.448650 0.147108 0
1.380583 0.172533 0
1.302091 0.184695 0
1.220658 0.177389 0
1.141631 0.145600 0
1.085667 0.096156 0
1.042882 0.027638 0
1.068716 -0.041918 0
1.115524 -0.084220 0
1.167185 -0.101623 0
1.221768 -0.095559 0
1.269999 -0.066683 0
1.299913 -0.022733 0
1.307933 0.025197 0
1.294583 0.068934 0
1.261516 0.104352 0
1.213087 0.132481 0
1.155208 0.163211 0
1.100714 0.208124 0
1.083329 0.245745 0
1.101987 0.219743 0
1.116431 0.129859 0
1.009847 0.190743 0
0.791941 0.339301 0
0.766871 0.307274 0
0.852342 0.215223 0
0.853662 0.196411 0
0.714741 0.201206 0
0.507489 0.184427 0
0.303302 0.145206 0
0.180229 0.055905 0
0.175669 -0.075710 0
0.233058 -0.187329 0
0.308765 -0.255691 0
0.373689 -0.297960 0
0.412638 -0.338598 0
0.435695 -0.380602 0
0.481216 -0.400181 0
0.574841 -0.373498 0
0.699268 -0.317470 0
0.809395 -0.264609 0
0.892214 -0.233388 0
0.964231 -0.214536 0
1.030714 -0.185778 0
1.085925 -0.140671 0
1.121161 -0.079414 0
1.134813 -0.013427 0
1.126414 0.042883 0
1.096378 0.102960 0
1.059390 0.180288 0
1.030696 0.250454 0
1.028154 0.273141 0
1.052628 0.236608 0
1.077260 0.161510 0
1.060943 0.083814 0
1.016682 0.049407 0
0.974318 0.062202 0
0.950373 0.082065 0
0.923860 0.089074 0
0.886473 0.076644 0
0.860692 0.048038 0
0.853870 0.021252 0
0.858457 0.004942 0
0.862112 -0.001755 0
0.863632 -0.004434 0
0.864607 -0.006349 0
0.866472 -0.008578 0
0.869815 -0.011085 0
0.874538 -0.013445 0
0.880262 -0.015306 0
0.886664 -0.016577 0
0.893630 -0.017365 0
0.901163 -0.017848 0
0.909231 -0.018140 0
0.917629 -0.018223 0
0.925943 -0.017969 0
0.933689 -0.017215 0
0.940513 -0.015892 0
0.946314 -0.014108 0
0.951190 -0.012121 0
0.955380 -0.010100 0
0.959128 -0.008252 0
0.962630 -0.006546 0
0.965754 -0.005323 0
0.968859 -0.004319 0
0.970252 -0.003643 0
1.000000 -0.018141 0
1.004917 -0.057596 0
1.022837 -0.101659 0
1.050497 -0.150444 0
1.095030 -0.204992 0
1.161743 -0.258083 0
1.252157 -0.316721 0
1.425557 -0.327036 0
1.535083 -0.261176 0
1.590368 -0.179205 0
1.619752 -0.103691 0
1.635742 -0.033502 0
1.638318 0.035338 0
1.620702 0.101568 0
1.583519 0.162592 0
1.522136 0.215276 0
1.434907 0.254855 0
1.330320 0.274034 0
1.210493 0.268528 0
1.076192 0.223710 0
1.068483 0.156949 0
0.983983 0.036464 0
1.007605 -0.090948 0
1.067295 -0.142723 0
1.108279 -0.161872 0
1.157562 -0.155103 0
1.218055 -0.113838 0
1.268707 -0.048161 0
1.301231 0.023798 0
1.316082 0.092495 0
1.308754 0.150864 0
1.276341 0.192085 0
1.227032 0.219337 0
1.175316 0.242383 0
1.145762 0.244054 0
1.149043 0.191965 0
1.124556 0.193336 0
0.916640 0.406250 0
0.777873 0.446128 0
0.773273 0.203449 0
0.752419 0.125773 0
0.739987 0.236410 0
0.701509 0.357070 0
0.572324 0.412760 0
0.370811 0.348290 0
0.278079 0.128354 0
0.325317 -0.115207 0
0.405519 -0.265362 0
0.466411 -0.335764 0
0.520506 -0.348766 0
0.564386 -0.341189 0
0.570597 -0.358898 0
0.540196 -0.403684 0
0.521749 -0.430099 0
0.551340 -0.408322 0
0.610686 -0.359238 0
0.669243 -0.318315 0
0.710628 -0.289072 0
0.744525 -0.250443 0
0.776925 -0.188128 0
0.805062 -0.106921 0
0.826485 -0.017304 0
0.835157 0.074491 0
0.828375 0.151301 0
0.828673 0.202180 0
0.854433 0.228367 0
0.901625 0.226612 0
0.944642 0.196332 0
0.964399 0.161236 0
0.949594 0.141988 0
0.912530 0.129201 0
0.888304 0.118445 0
0.888424 0.107040 0
0.901246 0.091540 0
0.921083 0.070453 0
0.931479 0.038664 0
0.921625 0.006771 0
0.897957 -0.006965 0
0.877230 -0.006780 0
0.863743 -0.006020 0
0.857130 -0.007537 0
0.855844 -0.010784 0
0.858357 -0.014668 0
0.863497 -0.018416 0
0.870487 -0.021616 0
0.878834 -0.024098 0
0.888151 -0.025836 0
0.898063 -0.026870 0
0.908143 -0.027243 0
0.917927 -0.026942 0
0.927024 -0.025943 0
0.935189 -0.024321 0
0.942326 -0.022221 0
0.948461 -0.019754 0
0.953732 -0.017095 0
0.958318 -0.014409 0
0.962411 -0.012065 0
0.966243 -0.009901 0
0.969561 -0.008305 0
0.972703 -0.006455 0
0.974085 -0.005008 0
1.000000 -0.019315 0
0.999234 -0.067342 0
1.013746 -0.122690 0
1.034323 -0.184363 0
1.072462 -0.259990 0
1.129956 -0.339548 0
1.235034 -0.473256 0
1.535241 -0.495279 0
1.621115 -0.344607 0
1.622791 -0.214856 0
1.623772 -0.123657 0
1.636046 -0.044671 0
1.660124 0.040958 0
1.657203 0.127856 0
1.649724 0.211647 0
1.622452 0.295717 0
1.534755 0.364348 0
1.405773 0.409108 0
1.263245 0.431515 0
1.131023 0.287608 0
0.823696 0.188363 0
0.554697 0.088516 0
0.690531 -0.125230 0
0.803575 -0.184896 0
0.761198 -0.191891 0
0.736679 -0.205336 0
0.798829 -0.177829 0
0.925499 -0.105910 0
1.059546 -0.022178 0
1.154828 0.061411 0
1.199008 0.144094 0
1.216872 0.214204 0
1.221345 0.264238 0
1.208850 0.289396 0
1.190521 0.272019 0
1.155945 0.240952 0
1.047579 0.362265 0
0.905382 0.537429 0
0.922854 0.482672 0
0.845033 0.332731 0
0.666082 0.248513 0
0.577220 0.247324 0
0.542624 0.368872 0
0.471504 0.515129 0
0.415300 0.439455 0
0.439474 0.101403 0
0.493902 -0.203146 0
0.575536 -0.328419 0
0.601534 -0.370674 0
0.575521 -0.395931 0
0.568714 -0.388686 0
0.589704 -0.356408 0
0.593825 -0.351329 0
0.562545 -0.384639 0
0.529793 -0.406404 0
0.528192 -0.382508 0
0.547427 -0.333327 0
0.559567 -0.289815 0
0.556824 -0.252071 0
0.549822 -0.201206 0
0.551184 -0.128971 0
0.563754 -0.043519 0
0.588814 0.040995 0
0.628467 0.109447 0
0.675417 0.154232 0
0.726831 0.177504 0
0.778183 0.182933 0
0.822175 0.173837 0
0.850494 0.156561 0
0.873780 0.135687 0
0.897759 0.110699 0
0.919101 0.086310 0
0.936929 0.069125 0
0.946487 0.056417 0
0.947917 0.046414 0
0.938189 0.047498 0
0.911883 0.054777 0
0.877768 0.049340 0
0.852147 0.032462 0
0.837734 0.015668 0
0.832598 0.001552 0
0.834064 -0.009802 0
0.839935 -0.018735 0
0.848656 -0.025573 0
0.859180 -0.030641 0
0.870843 -0.034238 0
0.883193 -0.036591 0
0.895788 -0.037838 0
0.908087 -0.038003 0
0.919555 -0.037101 0
0.929788 -0.035229 0
0.938619 -0.032515 0
0.946028 -0.029161 0
0.952205 -0.025512 0
0.957571 -0.021975 0
0.962514 -0.018777 0
0.967312 -0.016176 0
0.971788 -0.013693 0
0.975664 -0.011780 0
0.978905 -0.008840 0
0.980198 -0.006374 0
1.000000 -0.017384 0
0.997034 -0.071355 0
1.003860 -0.136754 0
1.000360 -0.209166 0
1.035732 -0.300629 0
1.056902 -0.420659 0
1.209231 -0.722010 0
1.566308 -0.713121 0
1.450876 -0.348729 0
1.317549 -0.181864 0
1.241992 -0.116948 0
1.224001 -0.069855 0
1.358432 0.014179 0
1.367197 0.111965 0
1.409969 0.197342 0
1.517376 0.330244 0
1.563298 0.471531 0
1.480756 0.545542 0
1.349499 0.543276 0
1.165738 0.663256 0
0.758336 0.733274 0
0.704521 0.169627 0
0.574422 -0.339828 0
0.263976 -0.213392 0
0.105381 -0.094977 0
0.060815 -0.192735 0
0.121745 -0.302658 0
0.301484 -0.308878 0
0.539832 -0.205531 0
0.762142 -0.046967 0
0.924807 0.088821 0
1.031945 0.169749 0
1.088705 0.227360 0
1.120375 0.273208 0
1.136885 0.296961 0
1.104744 0.334910 0
1.022337 0.443901 0
1.019833 0.530977 0
1.051297 0.506481 0
0.994515 0.460225 0
0.898047 0.393590 0
0.763589 0.359873 0
0.638486 0.462789 0
0.611205 0.540088 0
0.717476 0.380324 0
0.766220 0.049757 0
0.653538 -0.251265 0
0.622020 -0.372991 0
0.639534 -0.335745 0
0.606567 -0.315942 0
0.521582 -0.355369 0
0.475694 -0.384005 0
0.499010 -0.376521 0
0.536519 -0.366063 0
0.549236 -0.373966 0
0.546664 -0.376870 0
0.548424 -0.349687 0
0.552017 -0.298466 0
0.545118 -0.240694 0
0.527774 -0.182486 0
0.512852 -0.120851 0
0.512225 -0.054931 0
0.531172 0.009781 0
0.568625 0.064701 0
0.617868 0.103818 0
0.673420 0.125604 0
0.731474 0.131270 0
0.787251 0.124023 0
0.834420 0.109634 0
0.868853 0.094725 0
0.886730 0.083882 0
0.885627 0.079278 0
0.870263 0.079657 0
0.847850 0.080554 0
0.821976 0.078754 0
0.798056 0.074700 0
0.786569 0.067194 0
0.786712 0.052774 0
0.789596 0.033257 0
0.794373 0.013532 0
0.801554 -0.003864 0
0.811359 -0.018118 0
0.823587 -0.029258 0
0.837741 -0.037658 0
0.853129 -0.043800 0
0.868979 -0.048108 0
0.884578 -0.050779 0
0.899356 -0.051761 0
0.912901 -0.051008 0
0.924973 -0.048641 0
0.935405 -0.045004 0
0.944327 -0.040557 0
0.951956 -0.035804 0
0.958644 -0.031295 0
0.964869 -0.027401 0
0.970829 -0.024147 0
0.976499 -0.021336 0
0.981150 -0.018251 0
0.984827 -0.015419 0
0.986962 -0.010986 0
0.987943 -0.007547 0
1.000000 -0.016360 0
0.999027 -0.071215 0
0.992339 -0.126022 0
0.974437 -0.216241 0
0.981197 -0.316538 0
0.962395 -0.513053 0
1.060712 -0.982667 0
0.764795 -0.641078 0
-0.001352 0.000000 0
-0.001977 0.000000 0
0.447231 -0.024138 0
0.392813 -0.161114 0
0.599396 -0.102240 0
0.761146 0.076316 0
0.811940 0.061466 0
0.869825 0.142385 0
0.980017 0.400965 0
1.149403 0.622904 0
1.234338 0.746531 0
1.145177 0.878769 0
1.172566 0.649578 0
0.996529 0.272428 0
0.318179 0.315313 0
-0.034675 0.284144 0
-0.246775 0.011269 0
-0.237255 -0.221701 0
-0.196882 -0.418498 0
-0.092762 -0.523998 0
0.090039 -0.482836 0
0.349518 -0.323564 0
0.610307 -0.125709 0
0.811237 0.050307 0
0.940636 0.175809 0
1.015318 0.241218 0
1.046078 0.287653 0
1.046404 0.355502 0
1.047777 0.447179 0
1.089415 0.508472 0
1.123399 0.507992 0
1.120351 0.485985 0
1.101891 0.479443 0
1.013291 0.506890 0
0.932192 0.521261 0
0.960359 0.436143 0
1.055179 0.284445 0
1.079771 0.165345 0
0.986478 -0.058942 0
0.741503 -0.314411 0
0.544855 -0.355217 0
0.525344 -0.277975 0
0.489214 -0.257810 0
0.440234 -0.333832 0
0.433407 -0.412150 0
0.474200 -0.434862 0
0.530069 -0.416545 0
0.568655 -0.381692 0
0.586115 -0.338678 0
0.591393 -0.286506 0
0.589471 -0.227824 0
0.582882 -0.168937 0
0.577969 -0.113420 0
0.583563 -0.061836 0
0.606127 -0.015403 0
0.646549 0.022753 0
0.700291 0.049440 0
0.760063 0.063901 0
0.815848 0.069104 0
0.856535 0.070893 0
0.874810 0.074962 0
0.870971 0.083380 0
0.850905 0.093928 0
0.822739 0.102780 0
0.794650 0.106905 0
0.772108 0.104706 0
0.756953 0.096210 0
0.749471 0.082908 0
0.750147 0.066123 0
0.756888 0.046315 0
0.766182 0.024804 0
0.777118 0.003713 0
0.789948 -0.015431 0
0.805030 -0.031832 0
0.822288 -0.045114 0
0.841178 -0.055112 0
0.860736 -0.061877 0
0.879674 -0.065684 0
0.896896 -0.066964 0
0.911732 -0.066158 0
0.924436 -0.063618 0
0.935786 -0.059602 0
0.946320 -0.054579 0
0.956483 -0.049063 0
0.965836 -0.043476 0
0.973552 -0.038422 0
0.979738 -0.034157 0
0.984981 -0.030405 0
0.989475 -0.026494 0
0.992550 -0.022017 0
0.994593 -0.017590 0
0.994986 -0.011954 0
0.995596 -0.008285 0
1.000000 -0.016422 0
1.002171 -0.063708 0
0.972529 -0.112170 0
0.975719 -0.198030 0
0.903807 -0.288595 0
0.889166 -0.500180 0
0.638433 -0.620267 0
0.000000 0.000127 0
-0.624474 0.275662 0
-0.513892 0.000000 0
0.000000 0.000000 0
-0.032265 -0.230149 0
-0.179894 -0.354156 0
-0.072987 -0.100581 0
0.269668 0.088659 0
0.551061 0.162164 0
0.734093 0.191950 0
0.890250 0.291217 0
0.989381 0.547499 0
1.015369 0.725025 0
0.929958 0.881920 0
0.532571 1.024012 0
-0.016429 0.691374 0
-0.046276 0.351561 0
-0.040085 0.107602 0
-0.012547 -0.242630 0
0.022525 -0.447152 0
0.032433 -0.595800 0
0.059820 -0.647811 0
0.175068 -0.567235 0
0.377502 -0.372898 0
0.590880 -0.160579 0
0.784513 0.023280 0
0.917116 0.167767 0
0.979505 0.265877 0
1.009428 0.333212 0
1.054426 0.400892 0
1.122043 0.455358 0
1.180254 0.475548 0
1.213927 0.481736 0
1.223267 0.500654 0
1.216987 0.529575 0
1.224722 0.515726 0
1.252989 0.417105 0
1.270734 0.260916 0
1.276584 0.118461 0
1.273698 0.087007 0
1.106910 0.068636 0
0.889763 -0.119582 0
0.698860 -0.260297 0
0.587363 -0.270255 0
0.559215 -0.328194 0
0.556126 -0.410484 0
0.562348 -0.462722 0
0.585259 -0.468418 0
0.618559 -0.432913 0
0.652921 -0.372422 0
0.678905 -0.301819 0
0.694382 -0.232180 0
0.703382 -0.170981 0
0.714356 -0.121528 0
0.735168 -0.083086 0
0.769809 -0.053203 0
0.813775 -0.029460 0
0.855001 -0.009693 0
0.884704 0.010048 0
0.898403 0.034800 0
0.893599 0.065064 0
0.872424 0.095200 0
0.842367 0.118632 0
0.811190 0.132117 0
0.784244 0.135536 0
0.764032 0.130290 0
0.750634 0.118254 0
0.742938 0.101393 0
0.739921 0.081508 0
0.741543 0.059779 0
0.747837 0.036742 0
0.758353 0.013029 0
0.772797 -0.010232 0
0.790744 -0.031773 0
0.811422 -0.050456 0
0.833613 -0.065403 0
0.856030 -0.076104 0
0.877571 -0.082293 0
0.897250 -0.084265 0
0.915268 -0.082834 0
0.931719 -0.079299 0
0.946885 -0.075059 0
0.960771 -0.070522 0
0.971974 -0.065698 0
0.981646 -0.060070 0
0.988950 -0.052871 0
0.994344 -0.045196 0
0.998090 -0.038827 0
1.000525 -0.033880 0
1.001935 -0.028903 0
1.002703 -0.023366 0
1.003117 -0.017852 0
1.002902 -0.011986 0
1.003216 -0.008738 0
1.000000 -0.018543 0
0.992414 -0.043761 0
0.969874 -0.099578 0
0.955593 -0.147526 0
0.877013 -0.229992 0
0.808577 -0.247686 0
0.491536 -0.176625 0
0.331398 -0.085766 0
0.000000 0.000000 0
0.000000 0.000000 0
0.000000 0.000000 0
0.000000 0.000000 0
-0.240802 -0.072173 0
-0.362860 -0.373249 0
-0.366848 -0.562586 0
0.365725 -0.322043 0
0.598945 0.061773 0
0.435910 0.367613 0
0.417227 0.621408 0
0.534427 0.938189 0
0.228361 1.132372 0
0.146473 1.218812 0
0.125793 0.894159 0
0.093189 0.307798 0
0.224806 -0.022462 0
0.258990 -0.284311 0
0.317490 -0.463479 0
0.359255 -0.561294 0
0.368936 -0.625471 0
0.348869 -0.641245 0
0.391628 -0.541521 0
0.517858 -0.356703 0
0.679385 -0.150426 0
0.825080 0.046227 0
0.928968 0.195343 0
0.990723 0.280584 0
1.052204 0.334566 0
1.129771 0.382646 0
1.203511 0.416111 0
1.261199 0.442975 0
1.301241 0.476386 0
1.334294 0.505438 0
1.377142 0.485263 0
1.427093 0.390135 0
1.452704 0.260853 0
1.424952 0.162385 0
1.354346 0.110736 0
1.331803 0.069527 0
1.303616 0.052837 0
1.175060 0.024429 0
1.098746 -0.118161 0
1.049597 -0.302592 0
0.980892 -0.415279 0
0.899309 -0.463991 0
0.822793 -0.472752 0
0.777509 -0.449351 0
0.763437 -0.399020 0
0.774201 -0.327964 0
0.801747 -0.252299 0
0.836080 -0.188908 0