# vtk DataFile Version 2.0
generated by CFD-lab course output (written by Tobias Neckel) 
ASCII

DATASET STRUCTURED_GRID
DIMENSIONS  101 21 1 
POINTS 2121 float

0.000000 0.000000 0
0.100000 0.000000 0
0.200000 0.000000 0
0.300000 0.000000 0
0.400000 0.000000 0
0.500000 0.000000 0
0.600000 0.000000 0
0.700000 0.000000 0
0.800000 0.000000 0
0.900000 0.000000 0
1.000000 0.000000 0
1.100000 0.000000 0
1.200000 0.000000 0
1.300000 0.000000 0
1.400000 0.000000 0
1.500000 0.000000 0
1.600000 0.000000 0
1.700000 0.000000 0
1.800000 0.000000 0
1.900000 0.000000 0
2.000000 0.000000 0
2.100000 0.000000 0
2.200000 0.000000 0
2.300000 0.000000 0
2.400000 0.000000 0
2.500000 0.000000 0
2.600000 0.000000 0
2.700000 0.000000 0
2.800000 0.000000 0
2.900000 0.000000 0
3.000000 0.000000 0
3.100000 0.000000 0
3.200000 0.000000 0
3.300000 0.000000 0
3.400000 0.000000 0
3.500000 0.000000 0
3.600000 0.000000 0
3.700000 0.000000 0
3.800000 0.000000 0
3.900000 0.000000 0
4.000000 0.000000 0
4.100000 0.000000 0
4.200000 0.000000 0
4.300000 0.000000 0
4.400000 0.000000 0
4.500000 0.000000 0
4.600000 0.000000 0
4.700000 0.000000 0
4.800000 0.000000 0
4.900000 0.000000 0
5.000000 0.000000 0
5.100000 0.000000 0
5.200000 0.000000 0
5.300000 0.000000 0
5.400000 0.000000 0
5.500000 0.000000 0
5.600000 0.000000 0
5.700000 0.000000 0
5.800000 0.000000 0
5.900000 0.000000 0
6.000000 0.000000 0
6.100000 0.000000 0
6.200000 0.000000 0
6.300000 0.000000 0
6.400000 0.000000 0
6.500000 0.000000 0
6.600000 0.000000 0
6.700000 0.000000 0
6.800000 0.000000 0
6.900000 0.000000 0
7.000000 0.000000 0
7.100000 0.000000 0
7.200000 0.000000 0
7.300000 0.000000 0
7.400000 0.000000 0
7.500000 0.000000 0
7.600000 0.000000 0
7.700000 0.000000 0
7.800000 0.000000 0
7.900000 0.000000 0
8.000000 0.000000 0
8.100000 0.000000 0
8.200000 0.000000 0
8.300000 0.000000 0
8.400000 0.000000 0
8.500000 0.000000 0
8.600000 0.000000 0
8.700000 0.000000 0
8.800000 0.000000 0
8.900000 0.000000 0
9.000000 0.000000 0
9.100000 0.000000 0
9.200000 0.000000 0
9.300000 0.000000 0
9.400000 0.000000 0
9.500000 0.000000 0
9.600000 0.000000 0
9.700000 0.000000 0
9.800000 0.000000 0
9.900000 0.000000 0
10.000000 0.000000 0
0.000000 0.100000 0
0.100000 0.100000 0
0.200000 0.100000 0
0.300000 0.100000 0
0.400000 0.100000 0
0.500000 0.100000 0
0.600000 0.100000 0
0.700000 0.100000 0
0.800000 0.100000 0
0.900000 0.100000 0
1.000000 0.100000 0
1.100000 0.100000 0
1.200000 0.100000 0
1.300000 0.100000 0
1.400000 0.100000 0
1.500000 0.100000 0
1.600000 0.100000 0
1.700000 0.100000 0
1.800000 0.100000 0
1.900000 0.100000 0
2.000000 0.100000 0
2.100000 0.100000 0
2.200000 0.100000 0
2.300000 0.100000 0
2.400000 0.100000 0
2.500000 0.100000 0
2.600000 0.100000 0
2.700000 0.100000 0
2.800000 0.100000 0
2.900000 0.100000 0
3.000000 0.100000 0
3.100000 0.100000 0
3.200000 0.100000 0
3.300000 0.100000 0
3.400000 0.100000 0
3.500000 0.100000 0
3.600000 0.100000 0
3.700000 0.100000 0
3.800000 0.100000 0
3.900000 0.100000 0
4.000000 0.100000 0
4.100000 0.100000 0
4.200000 0.100000 0
4.300000 0.100000 0
4.400000 0.100000 0
4.500000 0.100000 0
4.600000 0.100000 0
4.700000 0.100000 0
4.800000 0.100000 0
4.900000 0.100000 0
5.000000 0.100000 0
5.100000 0.100000 0
5.200000 0.100000 0
5.300000 0.100000 0
5.400000 0.100000 0
5.500000 0.100000 0
5.600000 0.100000 0
5.700000 0.100000 0
5.800000 0.100000 0
5.900000 0.100000 0
6.000000 0.100000 0
6.100000 0.100000 0
6.200000 0.100000 0
6.300000 0.100000 0
6.400000 0.100000 0
6.500000 0.100000 0
6.600000 0.100000 0
6.700000 0.100000 0
6.800000 0.100000 0
6.900000 0.100000 0
7.000000 0.100000 0
7.100000 0.100000 0
7.200000 0.100000 0
7.300000 0.100000 0
7.400000 0.100000 0
7.500000 0.100000 0
7.600000 0.100000 0
7.700000 0.100000 0
7.800000 0.100000 0
7.900000 0.100000 0
8.000000 0.100000 0
8.100000 0.100000 0
8.200000 0.100000 0
8.300000 0.100000 0
8.400000 0.100000 0
8.500000 0.100000 0
8.600000 0.100000 0
8.700000 0.100000 0
8.800000 0.100000 0
8.900000 0.100000 0
9.000000 0.100000 0
9.100000 0.100000 0
9.200000 0.100000 0
9.300000 0.100000 0
9.400000 0.100000 0
9.500000 0.100000 0
9.600000 0.100000 0
9.700000 0.100000 0
9.800000 0.100000 0
9.900000 0.100000 0
10.000000 0.100000 0
0.000000 0.200000 0
0.100000 0.200000 0
0.200000 0.200000 0
0.300000 0.200000 0
0.400000 0.200000 0
0.500000 0.200000 0
0.600000 0.200000 0
0.700000 0.200000 0
0.800000 0.200000 0
0.900000 0.200000 0
1.000000 0.200000 0
1.100000 0.200000 0
1.200000 0.200000 0
1.300000 0.200000 0
1.400000 0.200000 0
1.500000 0.200000 0
1.600000 0.200000 0
1.700000 0.200000 0
1.800000 0.200000 0
1.900000 0.200000 0
2.000000 0.200000 0
2.100000 0.200000 0
2.200000 0.200000 0
2.300000 0.200000 0
2.400000 0.200000 0
2.500000 0.200000 0
2.600000 0.200000 0
2.700000 0.200000 0
2.800000 0.200000 0
2.900000 0.200000 0
3.000000 0.200000 0
3.100000 0.200000 0
3.200000 0.200000 0
3.300000 0.200000 0
3.400000 0.200000 0
3.500000 0.200000 0
3.600000 0.200000 0
3.700000 0.200000 0
3.800000 0.200000 0
3.900000 0.200000 0
4.000000 0.200000 0
4.100000 0.200000 0
4.200000 0.200000 0
4.300000 0.200000 0
4.400000 0.200000 0
4.500000 0.200000 0
4.600000 0.200000 0
4.700000 0.200000 0
4.800000 0.200000 0
4.900000 0.200000 0
5.000000 0.200000 0
5.100000 0.200000 0
5.200000 0.200000 0
5.300000 0.200000 0
5.400000 0.200000 0
5.500000 0.200000 0
5.600000 0.200000 0
5.700000 0.200000 0
5.800000 0.200000 0
5.900000 0.200000 0
6.000000 0.200000 0
6.100000 0.200000 0
6.200000 0.200000 0
6.300000 0.200000 0
6.400000 0.200000 0
6.500000 0.200000 0
6.600000 0.200000 0
6.700000 0.200000 0
6.800000 0.200000 0
6.900000 0.200000 0
7.000000 0.200000 0
7.100000 0.200000 0
7.200000 0.200000 0
7.300000 0.200000 0
7.400000 0.200000 0
7.500000 0.200000 0
7.600000 0.200000 0
7.700000 0.200000 0
7.800000 0.200000 0
7.900000 0.200000 0
8.000000 0.200000 0
8.100000 0.200000 0
8.200000 0.200000 0
8.300000 0.200000 0
8.400000 0.200000 0
8.500000 0.200000 0
8.600000 0.200000 0
8.700000 0.200000 0
8.800000 0.200000 0
8.900000 0.200000 0
9.000000 0.200000 0
9.100000 0.200000 0
9.200000 0.200000 0
9.300000 0.200000 0
9.400000 0.200000 0
9.500000 0.200000 0
9.600000 0.200000 0
9.700000 0.200000 0
9.800000 0.200000 0
9.900000 0.200000 0
10.000000 0.200000 0
0.000000 0.300000 0
0.100000 0.300000 0
0.200000 0.300000 0
0.300000 0.300000 0
0.400000 0.300000 0
0.500000 0.300000 0
0.600000 0.300000 0
0.700000 0.300000 0
0.800000 0.300000 0
0.900000 0.300000 0
1.000000 0.300000 0
1.100000 0.300000 0
1.200000 0.300000 0
1.300000 0.300000 0
1.400000 0.300000 0
1.500000 0.300000 0
1.600000 0.300000 0
1.700000 0.300000 0
1.800000 0.300000 0
1.900000 0.300000 0
2.000000 0.300000 0
2.100000 0.300000 0
2.200000 0.300000 0
2.300000 0.300000 0
2.400000 0.300000 0
2.500000 0.300000 0
2.600000 0.300000 0
2.700000 0.300000 0
2.800000 0.300000 0
2.900000 0.300000 0
3.000000 0.300000 0
3.100000 0.300000 0
3.200000 0.300000 0
3.300000 0.300000 0
3.400000 0.300000 0
3.500000 0.300000 0
3.600000 0.300000 0
3.700000 0.300000 0
3.800000 0.300000 0
3.900000 0.300000 0
4.000000 0.300000 0
4.100000 0.300000 0
4.200000 0.300000 0
4.300000 0.300000 0
4.400000 0.300000 0
4.500000 0.300000 0
4.600000 0.300000 0
4.700000 0.300000 0
4.800000 0.300000 0
4.900000 0.300000 0
5.000000 0.300000 0
5.100000 0.300000 0
5.200000 0.300000 0
5.300000 0.300000 0
5.400000 0.300000 0
5.500000 0.300000 0
5.600000 0.300000 0
5.700000 0.300000 0
5.800000 0.300000 0
5.900000 0.300000 0
6.000000 0.300000 0
6.100000 0.300000 0
6.200000 0.300000 0
6.300000 0.300000 0
6.400000 0.300000 0
6.500000 0.300000 0
6.600000 0.300000 0
6.700000 0.300000 0
6.800000 0.300000 0
6.900000 0.300000 0
7.000000 0.300000 0
7.100000 0.300000 0
7.200000 0.300000 0
7.300000 0.300000 0
7.400000 0.300000 0
7.500000 0.300000 0
7.600000 0.300000 0
7.700000 0.300000 0
7.800000 0.300000 0
7.900000 0.300000 0
8.000000 0.300000 0
8.100000 0.300000 0
8.200000 0.300000 0
8.300000 0.300000 0
8.400000 0.300000 0
8.500000 0.300000 0
8.600000 0.300000 0
8.700000 0.300000 0
8.800000 0.300000 0
8.900000 0.300000 0
9.000000 0.300000 0
9.100000 0.300000 0
9.200000 0.300000 0
9.300000 0.300000 0
9.400000 0.300000 0
9.500000 0.300000 0
9.600000 0.300000 0
9.700000 0.300000 0
9.800000 0.300000 0
9.900000 0.300000 0
10.000000 0.300000 0
0.000000 0.400000 0
0.100000 0.400000 0
0.200000 0.400000 0
0.300000 0.400000 0
0.400000 0.400000 0
0.500000 0.400000 0
0.600000 0.400000 0
0.700000 0.400000 0
0.800000 0.400000 0
0.900000 0.400000 0
1.000000 0.400000 0
1.100000 0.400000 0
1.200000 0.400000 0
1.300000 0.400000 0
1.400000 0.400000 0
1.500000 0.400000 0
1.600000 0.400000 0
1.700000 0.400000 0
1.800000 0.400000 0
1.900000 0.400000 0
2.000000 0.400000 0
2.100000 0.400000 0
2.200000 0.400000 0
2.300000 0.400000 0
2.400000 0.400000 0
2.500000 0.400000 0
2.600000 0.400000 0
2.700000 0.400000 0
2.800000 0.400000 0
2.900000 0.400000 0
3.000000 0.400000 0
3.100000 0.400000 0
3.200000 0.400000 0
3.300000 0.400000 0
3.400000 0.400000 0
3.500000 0.400000 0
3.600000 0.400000 0
3.700000 0.400000 0
3.800000 0.400000 0
3.900000 0.400000 0
4.000000 0.400000 0
4.100000 0.400000 0
4.200000 0.400000 0
4.300000 0.400000 0
4.400000 0.400000 0
4.500000 0.400000 0
4.600000 0.400000 0
4.700000 0.400000 0
4.800000 0.400000 0
4.900000 0.400000 0
5.000000 0.400000 0
5.100000 0.400000 0
5.200000 0.400000 0
5.300000 0.400000 0
5.400000 0.400000 0
5.500000 0.400000 0
5.600000 0.400000 0
5.700000 0.400000 0
5.800000 0.400000 0
5.900000 0.400000 0
6.000000 0.400000 0
6.100000 0.400000 0
6.200000 0.400000 0
6.300000 0.400000 0
6.400000 0.400000 0
6.500000 0.400000 0
6.600000 0.400000 0
6.700000 0.400000 0
6.800000 0.400000 0
6.900000 0.400000 0
7.000000 0.400000 0
7.100000 0.400000 0
7.200000 0.400000 0
7.300000 0.400000 0
7.400000 0.400000 0
7.500000 0.400000 0
7.600000 0.400000 0
7.700000 0.400000 0
7.800000 0.400000 0
7.900000 0.400000 0
8.000000 0.400000 0
8.100000 0.400000 0
8.200000 0.400000 0
8.300000 0.400000 0
8.400000 0.400000 0
8.500000 0.400000 0
8.600000 0.400000 0
[...]
POINT_DATA 2121 

VECTORS velocity float
0.500000 0.000000 0
-0.000035 0.000000 0
-0.000100 0.000000 0
-0.000191 0.000000 0
-0.000300 0.000000 0
-0.000409 0.000000 0
-0.000480 0.000000 0
-0.000448 0.000000 0
-0.000213 0.000000 0
0.000325 0.000000 0
0.001078 0.000000 0
0.001987 0.000000 0
0.002925 0.000000 0
0.003647 0.000000 0
0.004221 0.000000 0
0.004562 0.000000 0
0.004540 0.000000 0
0.004164 0.000000 0
0.003531 0.000000 0
0.002770 0.000000 0
0.001935 0.000000 0
0.001526 0.000000 0
0.001323 0.000000 0
0.001221 0.000000 0
0.000201 0.000000 0
-0.000627 0.000000 0
-0.001221 0.000000 0
-0.001613 0.000000 0
-0.001755 0.000000 0
-0.001734 0.000000 0
-0.001647 0.000000 0
-0.001549 0.000000 0
-0.001454 0.000000 0
-0.001365 0.000000 0
-0.001281 0.000000 0
-0.001202 0.000000 0
-0.001127 0.000000 0
-0.001056 0.000000 0
-0.000989 0.000000 0
-0.000925 0.000000 0
-0.000863 0.000000 0
-0.000804 0.000000 0
-0.000748 0.000000 0
-0.000697 0.000000 0
-0.000649 0.000000 0
-0.000604 0.000000 0
-0.000563 0.000000 0
-0.000526 0.000000 0
-0.000491 0.000000 0
-0.000462 0.000000 0
-0.000437 0.000000 0
-0.000410 0.000000 0
-0.000388 0.000000 0
-0.000376 0.000000 0
-0.000360 0.000000 0
-0.000331 0.000000 0
-0.000314 0.000000 0
-0.000323 0.000000 0
-0.000320 0.000000 0
-0.000309 0.000000 0
-0.000296 0.000000 0
-0.000286 0.000000 0
-0.000277 0.000000 0
-0.000270 0.000000 0
-0.000265 0.000000 0
-0.000260 0.000000 0
-0.000257 0.000000 0
-0.000254 0.000000 0
-0.000251 0.000000 0
-0.000250 0.000000 0
-0.000248 0.000000 0
-0.000247 0.000000 0
-0.000246 0.000000 0
-0.000245 0.000000 0
-0.000244 0.000000 0
-0.000244 0.000000 0
-0.000243 0.000000 0
-0.000243 0.000000 0
-0.000242 0.000000 0
-0.000242 0.000000 0
-0.000242 0.000000 0
-0.000242 0.000000 0
-0.000242 0.000000 0
-0.000241 0.000000 0
-0.000241 0.000000 0
-0.000241 0.000000 0
-0.000241 0.000000 0
-0.000241 0.000000 0
-0.000241 0.000000 0
-0.000241 0.000000 0
-0.000241 0.000000 0
-0.000241 0.000000 0
-0.000241 0.000000 0
-0.000241 0.000000 0
-0.000241 0.000000 0
-0.000241 0.000000 0
-0.000241 0.000000 0
-0.000241 0.000000 0
-0.000242 0.000000 0
-0.000242 0.000000 0
-0.000243 0.000000 0
1.000000 -0.004592 0
1.009799 -0.014343 0
1.030105 -0.025035 0
1.061689 -0.036249 0
1.105065 -0.047305 0
1.159951 -0.056926 0
1.224245 -0.063295 0
1.294133 -0.064003 0
1.361115 -0.057617 0
1.417260 -0.044916 0
1.456445 -0.028263 0
1.477275 -0.009818 0
1.478437 0.009065 0
1.460241 0.026801 0
1.425307 0.042275 0
1.375530 0.054419 0
1.315091 0.061991 0
1.249376 0.064584 0
1.183525 0.062649 0
1.121542 0.056692 0
1.066180 0.047096 0
1.020130 0.043527 0
0.984070 0.041282 0
0.942244 0.033379 0
0.907156 0.023644 0
0.890664 0.012638 0
0.883452 0.004222 0
0.882949 -0.001559 0
0.886773 -0.004838 0
0.892535 -0.006273 0
0.898997 -0.006731 0
0.905635 -0.006759 0
0.912212 -0.006598 0
0.918606 -0.006337 0
0.924749 -0.006019 0
0.930601 -0.005672 0
0.936132 -0.005310 0
0.941326 -0.004942 0
0.946168 -0.004577 0
0.950648 -0.004218 0
0.954763 -0.003861 0
0.958522 -0.003511 0
0.961932 -0.003177 0
0.965006 -0.002864 0
0.967761 -0.002569 0
0.970223 -0.002290 0
0.972413 -0.002035 0
0.974353 -0.001800 0
0.976063 -0.001581 0
0.977571 -0.001401 0
0.978897 -0.001242 0
0.980049 -0.001063 0
0.981068 -0.000923 0
0.981979 -0.000862 0
0.982750 -0.000763 0
0.983373 -0.000559 0
0.983924 -0.000413 0
0.984482 -0.000465 0
0.984989 -0.000527 0
0.985431 -0.000474 0
0.985808 -0.000397 0
0.986126 -0.000327 0
0.986394 -0.000267 0
0.986619 -0.000219 0
0.986807 -0.000179 0
0.986965 -0.000148 0
0.987097 -0.000123 0
0.987207 -0.000102 0
0.987299 -0.000086 0
0.987376 -0.000073 0
0.987441 -0.000062 0
0.987496 -0.000053 0
0.987542 -0.000045 0
0.987581 -0.000039 0
0.987613 -0.000034 0
0.987640 -0.000030 0
0.987663 -0.000026 0
0.987682 -0.000023 0
0.987698 -0.000020 0
0.987711 -0.000018 0
0.987722 -0.000016 0
0.987731 -0.000014 0
0.987738 -0.000013 0
0.987744 -0.000012 0
0.987749 -0.000011 0
0.987753 -0.000010 0
0.987757 -0.000010 0
0.987760 -0.000010 0
0.987763 -0.000010 0
0.987767 -0.000010 0
0.987772 -0.000012 0
0.987777 -0.000013 0
0.987785 -0.000016 0
0.987796 -0.000019 0
0.987812 -0.000028 0
0.987836 -0.000034 0
0.987871 -0.000060 0
0.987927 -0.000084 0
0.988013 -0.000204 0
0.988164 -0.000410 0
0.988383 -0.000492 0
1.000000 -0.009786 0
1.010029 -0.030087 0
1.030774 -0.051878 0
1.063320 -0.074948 0
1.108951 -0.098250 0
1.168576 -0.119167 0
1.240336 -0.134169 0
1.323811 -0.136857 0
1.403170 -0.123114 0
1.465546 -0.095317 0
1.508677 -0.060002 0
1.532342 -0.021979 0
1.536372 0.017047 0
1.519302 0.053143 0
1.480356 0.084723 0
1.424532 0.110229 0
1.356688 0.126167 0
1.282941 0.131578 0
1.209342 0.127846 0
1.140756 0.117358 0
1.078992 0.101423 0
1.029006 0.082121 0
1.017551 0.077897 0
1.002392 0.076924 0
0.961681 0.051590 0
0.917456 0.023712 0
0.895458 0.007722 0
0.892679 -0.003313 0
0.898470 -0.009578 0
0.905616 -0.012218 0
0.912564 -0.013095 0
0.919265 -0.013209 0
0.925800 -0.012966 0
0.932188 -0.012534 0
0.938398 -0.011993 0
0.944384 -0.011381 0
0.950097 -0.010724 0
0.955491 -0.010035 0
0.960530 -0.009322 0
0.965190 -0.008596 0
0.969463 -0.007875 0
0.973353 -0.007171 0
0.976868 -0.006486 0
0.980025 -0.005832 0
0.982843 -0.005221 0
0.985346 -0.004656 0
0.987570 -0.004134 0
0.989526 -0.003655 0
0.991253 -0.003223 0
0.992783 -0.002839 0
0.994105 -0.002484 0
0.995257 -0.002178 0
0.996305 -0.001936 0
0.997206 -0.001689 0
0.997915 -0.001401 0
0.998546 -0.001181 0
0.999222 -0.001117 0
0.999872 -0.001072 0
1.000329 -0.000957 0
1.000702 -0.000827 0
1.001026 -0.000703 0
1.001309 -0.000595 0
1.001555 -0.000501 0
1.001767 -0.000422 0
1.001950 -0.000354 0
1.002106 -0.000298 0
1.002239 -0.000251 0
1.002352 -0.000211 0
1.002448 -0.000179 0
1.002529 -0.000151 0
1.002598 -0.000129 0
1.002656 -0.000110 0
1.002705 -0.000094 0
1.002746 -0.000080 0
1.002781 -0.000069 0
1.002811 -0.000059 0
1.002835 -0.000051 0
1.002856 -0.000044 0
1.002874 -0.000038 0
1.002888 -0.000033 0
1.002900 -0.000029 0
1.002911 -0.000025 0
1.002919 -0.000022 0
1.002926 -0.000020 0
1.002932 -0.000018 0
1.002937 -0.000017 0
1.002941 -0.000016 0
1.002945 -0.000016 0
1.002949 -0.000016 0
1.002953 -0.000017 0
1.002958 -0.000019 0
1.002964 -0.000023 0
1.002971 -0.000028 0
1.002981 -0.000036 0
1.002996 -0.000049 0
1.003013 -0.000068 0
1.003045 -0.000100 0
1.003071 -0.000151 0
1.003130 -0.000246 0
1.003109 -0.000379 0
1.003057 -0.000446 0
1.000000 -0.014611 0
1.008893 -0.045105 0
1.028411 -0.078321 0
1.060132 -0.114420 0
1.106925 -0.152556 0
1.172080 -0.188306 0
1.253340 -0.218524 0
1.367291 -0.226832 0
1.464324 -0.199347 0
1.532404 -0.150417 0
1.578268 -0.095053 0
1.604930 -0.037508 0
1.612932 0.022110 0
1.597874 0.082823 0
1.552982 0.137050 0
1.483560 0.178092 0
1.402925 0.203587 0
1.319923 0.211935 0
1.238302 0.204839 0
1.162405 0.187047 0
1.095606 0.158851 0
1.040025 0.104972 0
0.971636 0.067900 0
0.907052 0.089253 0
0.863332 0.108583 0
0.841710 0.078864 0
0.847469 0.029002 0
0.868331 -0.004568 0
0.888995 -0.017772 0
0.901292 -0.020365 0
0.909666 -0.020378 0
0.916814 -0.019994 0
0.923658 -0.019520 0
0.930404 -0.018934 0
0.937030 -0.018214 0
0.943452 -0.017370 0
0.949582 -0.016417 0
0.955345 -0.015376 0
0.960690 -0.014277 0
0.965591 -0.013152 0
0.970041 -0.012025 0
0.974046 -0.010917 0
0.977629 -0.009850 0
0.980819 -0.008840 0
0.983641 -0.007892 0
0.986134 -0.007019 0
0.988320 -0.006217 0
0.990234 -0.005486 0
0.991923 -0.004840 0
0.993396 -0.004255 0
0.994664 -0.003719 0
0.995801 -0.003266 0
0.996799 -0.002874 0
0.997606 -0.002475 0
0.998294 -0.002106 0
0.998994 -0.001870 0
0.999673 -0.001743 0
1.000188 -0.001575 0
1.000608 -0.001360 0
1.000963 -0.001174 0
1.001271 -0.001007 0
1.001537 -0.000859 0
1.001768 -0.000729 0
1.001965 -0.000617 0
1.002135 -0.000522 0
1.002279 -0.000441 0
1.002402 -0.000372 0
1.002507 -0.000315 0
1.002596 -0.000267 0
1.002672 -0.000226 0
1.002736 -0.000192 0
1.002791 -0.000164 0
1.002837 -0.000140 0
1.002875 -0.000119 0
1.002908 -0.000102 0
1.002936 -0.000088 0
1.002959 -0.000075 0
1.002979 -0.000065 0
1.002995 -0.000056 0
1.003009 -0.000048 0
1.003020 -0.000042 0
1.003029 -0.000036 0
1.003037 -0.000032 0
1.003044 -0.000028 0
1.003049 -0.000025 0
1.003054 -0.000023 0
1.003057 -0.000022 0
1.003061 -0.000021 0
1.003064 -0.000022 0
1.003067 -0.000023 0
1.003070 -0.000026 0
1.003074 -0.000030 0
1.003079 -0.000037 0
1.003085 -0.000048 0
1.003093 -0.000064 0
1.003103 -0.000087 0
1.003116 -0.000122 0
1.003126 -0.000173 0
1.003133 -0.000247 0
1.003106 -0.000341 0
1.003049 -0.000392 0
1.000000 -0.018669 0
1.006267 -0.058485 0
1.023324 -0.103112 0
1.051754 -0.153457 0
1.097550 -0.210192 0
1.166164 -0.265575 0
1.257424 -0.329373 0
1.437799 -0.347836 0
1.554808 -0.288222 0
1.615841 -0.209255 0
1.653841 -0.132522 0
1.681411 -0.056637 0
1.699324 0.024110 0
1.699622 0.113099 0
1.659254 0.199043 0
1.572493 0.260291 0
1.457189 0.289809 0
1.331715 0.296207 0
1.217193 0.285368 0
1.126374 0.260059 0
1.038714 0.223808 0
1.006110 0.206095 0
0.969831 0.210873 0
0.937050 0.185232 0
0.937167 0.116936 0
0.949792 0.039578 0
0.945892 -0.018896 0
0.927037 -0.044836 0
0.909506 -0.042536 0
0.904486 -0.032888 0
0.906895 -0.028615 0
0.912652 -0.027199 0
0.919760 -0.026554 0
0.927305 -0.025905 0
0.934840 -0.025040 0
0.942120 -0.023933 0
0.948991 -0.022617 0
0.955357 -0.021143 0
0.961167 -0.019568 0
0.966401 -0.017947 0
0.971068 -0.016332 0
0.975204 -0.014760 0
0.978852 -0.013259 0
0.982045 -0.011845 0
0.984834 -0.010537 0
0.987264 -0.009336 0
0.989372 -0.008237 0
0.991220 -0.007260 0
0.992825 -0.006388 0
0.994189 -0.005583 0
0.995396 -0.004891 0
0.996476 -0.004315 0
0.997350 -0.003744 0
0.998074 -0.003187 0
0.998793 -0.002792 0
0.999498 -0.002564 0
1.000073 -0.002314 0
1.000506 -0.002010 0
1.000883 -0.001734 0
1.001204 -0.001493 0
1.001478 -0.001282 0
1.001714 -0.001095 0
1.001916 -0.000933 0
1.002089 -0.000792 0
1.002238 -0.000672 0
1.002366 -0.000569 0
1.002475 -0.000482 0
1.002569 -0.000409 0
1.002648 -0.000347 0
1.002716 -0.000295 0
1.002773 -0.000251 0
1.002822 -0.000214 0
1.002863 -0.000182 0
1.002898 -0.000155 0
1.002928 -0.000133 0
1.002952 -0.000114 0
1.002973 -0.000097 0
1.002991 -0.000084 0
1.003005 -0.000072 0
1.003017 -0.000062 0
1.003027 -0.000053 0
1.003036 -0.000046 0
1.003043 -0.000041 0
1.003048 -0.000036 0
1.003053 -0.000032 0
1.003056 -0.000029 0
1.003059 -0.000027 0
1.003062 -0.000026 0
1.003064 -0.000026 0
1.003065 -0.000027 0
1.003067 -0.000030 0
1.003069 -0.000035 0
1.003071 -0.000043 0
1.003073 -0.000054 0
1.003075 -0.000071 0
1.003076 -0.000094 0
1.003076 -0.000127 0
1.003071 -0.000171 0
1.003057 -0.000229 0
1.003022 -0.000299 0
1.002966 -0.000337 0
1.000000 -0.020868 0
0.999491 -0.068416 0
1.014631 -0.123800 0
1.035492 -0.188640 0
1.076462 -0.266959 0
1.136765 -0.348173 0
1.241710 -0.490153 0
1.545420 -0.524209 0
1.637001 -0.377383 0
1.635804 -0.249445 0
1.632542 -0.160617 0
1.647066 -0.082985 0
1.677500 0.003905 0
1.732307 0.122899 0
1.746705 0.264184 0
1.688149 0.380163 0
1.571712 0.444370 0
1.424341 0.451936 0
1.271719 0.410185 0
1.118516 0.365531 0
0.996242 0.279119 0
0.957876 0.173859 0
0.938200 0.136965 0
0.928612 0.121921 0
0.932562 0.095844 0
0.934517 0.070142 0
0.924361 0.051760 0
0.905916 0.031821 0
0.891744 0.004782 0
0.890301 -0.017752 0
0.895716 -0.028542 0
0.903980 -0.032858 0
0.913266 -0.034171 0
0.922728 -0.034012 0
0.931915 -0.033029 0
0.940567 -0.031521 0
0.948537 -0.029654 0
0.955745 -0.027552 0
0.962158 -0.025321 0
0.967791 -0.023054 0
0.972693 -0.020829 0
0.976942 -0.018701 0
0.980614 -0.016692 0
0.983777 -0.014824 0
0.986482 -0.013113 0
0.988792 -0.011559 0
0.990798 -0.010175 0
0.992516 -0.008941 0
0.993971 -0.007811 0
0.995246 -0.006829 0
0.996379 -0.006009 0
0.997278 -0.005222 0
0.998014 -0.004474 0
0.998780 -0.003921 0
0.999508 -0.003534 0
1.000103 -0.003153 0
1.000538 -0.002754 0
1.000906 -0.002388 0
1.001224 -0.002061 0
1.001495 -0.001773 0
1.001726 -0.001520 0
1.001924 -0.001300 0
1.002093 -0.001109 0
1.002239 -0.000944 0
1.002365 -0.000802 0
1.002472 -0.000681 0
1.002565 -0.000578 0
1.002644 -0.000491 0
1.002712 -0.000418 0
1.002769 -0.000355 0
1.002819 -0.000302 0
1.002860 -0.000258 0
1.002896 -0.000220 0
1.002926 -0.000187 0
1.002951 -0.000160 0
1.002972 -0.000137 0
1.002990 -0.000117 0
1.003005 -0.000100 0
1.003017 -0.000086 0
1.003028 -0.000074 0
1.003036 -0.000064 0
1.003043 -0.000055 0
1.003049 -0.000048 0
1.003053 -0.000042 0
1.003057 -0.000037 0
1.003059 -0.000034 0
1.003061 -0.000031 0
1.003062 -0.000030 0
1.003063 -0.000029 0
1.003064 -0.000030 0
1.003063 -0.000033 0
1.003063 -0.000038 0
1.003062 -0.000045 0
1.003060 -0.000056 0
1.003056 -0.000071 0
1.003051 -0.000092 0
1.003041 -0.000120 0
1.003026 -0.000157 0
1.003000 -0.000201 0
1.002960 -0.000253 0
1.002903 -0.000282 0
1.000000 -0.018150 0
0.999138 -0.073102 0
1.001551 -0.139107 0
1.004908 -0.215282 0
1.039475 -0.311458 0
1.066086 -0.430817 0
1.221656 -0.738022 0
1.562970 -0.743120 0
1.441932 -0.378601 0
1.292210 -0.204791 0
1.198178 -0.143778 0
1.156295 -0.101589 0
1.182999 -0.061126 0
1.400108 0.043899 0
1.524457 0.243208 0
1.543356 0.435289 0
1.518531 0.553622 0
1.444401 0.596205 0
1.312796 0.591198 0
1.169787 0.535541 0
1.069426 0.384452 0
0.891928 0.264142 0
0.754078 0.240141 0
0.715974 0.190874 0
0.735095 0.111034 0
0.767059 0.047782 0
0.797471 0.009709 0
0.826044 -0.012216 0
0.849706 -0.026919 0
0.865567 -0.036857 0
0.878978 -0.042292 0
0.892057 -0.044747 0
0.904968 -0.045301 0
0.917371 -0.044554 0
0.928929 -0.042879 0
0.939433 -0.040555 0
0.948801 -0.037794 0
0.957010 -0.034764 0
0.964087 -0.031614 0
0.970110 -0.028483 0
0.975182 -0.025484 0
0.979452 -0.022683 0
0.983059 -0.020096 0
0.986106 -0.017714 0
0.988661 -0.015554 0
0.990785 -0.013654 0
0.992578 -0.011962 0
0.994129 -0.010436 0
0.995452 -0.009120 0
0.996539 -0.007992 0
0.997460 -0.006926 0
0.998276 -0.005954 0
0.999021 -0.005249 0
0.999733 -0.004684 0
1.000300 -0.004118 0
1.000724 -0.003596 0
1.001072 -0.003121 0
1.001366 -0.002699 0
1.001615 -0.002326 0
1.001828 -0.001999 0
1.002009 -0.001714 0
1.002164 -0.001466 0
1.002296 -0.001252 0
1.002411 -0.001067 0
1.002509 -0.000909 0
1.002594 -0.000773 0
1.002668 -0.000658 0
1.002731 -0.000560 0
1.002785 -0.000476 0
1.002832 -0.000406 0
1.002871 -0.000346 0
1.002905 -0.000295 0
1.002934 -0.000251 0
1.002958 -0.000214 0
1.002978 -0.000183 0
1.002996 -0.000157 0
1.003010 -0.000134 0
1.003022 -0.000115 0
1.003032 -0.000098 0
1.003040 -0.000084 0
1.003046 -0.000073 0
1.003052 -0.000063 0
1.003056 -0.000054 0
1.003059 -0.000047 0
1.003061 -0.000042 0
1.003063 -0.000037 0
1.003064 -0.000034 0
1.003064 -0.000032 0
1.003063 -0.000031 0
1.003062 -0.000031 0
1.003060 -0.000033 0
1.003057 -0.000037 0
1.003053 -0.000043 0
1.003048 -0.000053 0
1.003040 -0.000066 0
1.003029 -0.000083 0
1.003013 -0.000106 0
1.002990 -0.000134 0
1.002958 -0.000167 0
1.002914 -0.000206 0
1.002857 -0.000226 0
1.000000 -0.019995 0
1.002421 -0.069952 0
0.989951 -0.129564 0
0.974940 -0.226557 0
0.978028 -0.328131 0
0.965319 -0.530348 0
1.094598 -0.987030 0
0.757999 -0.637862 0
-0.000242 0.000000 0
-0.001487 0.000000 0
0.409930 -0.019012 0
0.334404 -0.067800 0
0.355765 -0.239902 0
0.670721 -0.218553 0
0.949778 0.120941 0
1.100278 0.386094 0
1.165089 0.543331 0
1.160273 0.657676 0
1.131155 0.684804 0
1.085632 0.608906 0
0.965206 0.556983 0
0.789551 0.489211 0
0.728057 0.312922 0
0.750494 0.140908 0
0.774116 0.044763 0
0.784607 0.007770 0
0.791920 -0.007222 0
0.803379 -0.020411 0
0.819664 -0.034739 0
0.838258 -0.047022 0
0.857828 -0.055030 0
0.877234 -0.058846 0
0.895543 -0.059484 0
0.912203 -0.057972 0
0.926951 -0.055091 0
0.939716 -0.051393 0
0.950643 -0.047231 0
0.959877 -0.042838 0
0.967550 -0.038421 0
0.973805 -0.034150 0
0.978857 -0.030172 0
0.982973 -0.026579 0
0.986316 -0.023347 0
0.989108 -0.020427 0
0.991455 -0.017793 0
0.993277 -0.015478 0
0.994731 -0.013521 0
0.996059 -0.011816 0
0.997225 -0.010223 0
0.998051 -0.008839 0
0.998867 -0.007748 0
0.999614 -0.006786 0
1.000262 -0.005935 0
1.000732 -0.005203 0
1.001105 -0.004527 0
1.001404 -0.003927 0
1.001653 -0.003399 0
1.001861 -0.002935 0
1.002036 -0.002527 0
1.002185 -0.002170 0
1.002312 -0.001860 0
1.002421 -0.001591 0
1.002514 -0.001359 0
1.002596 -0.001160 0
1.002666 -0.000989 0
1.002728 -0.000843 0
1.002781 -0.000719 0
1.002827 -0.000612 0
1.002867 -0.000522 0
1.002901 -0.000445 0
1.002930 -0.000379 0
1.002955 -0.000324 0
1.002976 -0.000276 0
1.002994 -0.000236 0
1.003009 -0.000201 0
1.003022 -0.000172 0
1.003032 -0.000147 0
1.003041 -0.000126 0
1.003048 -0.000108 0
1.003053 -0.000093 0
1.003058 -0.000079 0
1.003061 -0.000068 0
1.003064 -0.000059 0
1.003066 -0.000051 0
1.003067 -0.000045 0
1.003067 -0.000040 0
1.003067 -0.000036 0
1.003066 -0.000033 0
1.003064 -0.000031 0
1.003062 -0.000031 0
1.003058 -0.000032 0
1.003053 -0.000034 0
1.003047 -0.000039 0
1.003038 -0.000046 0
1.003027 -0.000056 0
1.003011 -0.000069 0
1.002991 -0.000085 0
1.002963 -0.000106 0
1.002927 -0.000130 0
1.002882 -0.000156 0
1.002824 -0.000171 0
1.000000 -0.020559 0
1.001364 -0.063037 0
0.971064 -0.111619 0
0.984391 -0.203352 0
0.879345 -0.301830 0
0.916812 -0.547381 0
0.556739 -0.637313 0
0.000000 -0.000609 0
-0.609275 0.256942 0
-0.487505 0.000000 0
0.000000 0.000000 0
-0.032536 -0.060943 0
-0.080337 -0.397438 0
-0.046323 -0.550108 0
0.262488 -0.186344 0
0.554334 0.219983 0
0.717279 0.493633 0
0.807752 0.630144 0
0.850661 0.665845 0
0.807263 0.701495 0
0.717493 0.680538 0
0.731118 0.501296 0
0.763565 0.279202 0
0.745322 0.144818 0
0.705970 0.076925 0
0.685741 0.029982 0
0.693604 -0.009060 0
0.721751 -0.039958 0
0.759159 -0.061796 0
0.797164 -0.075018 0
0.831702 -0.081267 0
0.861896 -0.082461 0
0.887867 -0.080268 0
0.909841 -0.075961 0
0.928183 -0.070392 0
0.943164 -0.064247 0
0.955325 -0.057954 0
0.965304 -0.051671 0
0.973302 -0.045542 0
0.979405 -0.039790 0
0.984083 -0.034653 0
0.987707 -0.030143 0
0.990450 -0.026231 0
0.992896 -0.022855 0
0.994923 -0.019725 0
0.996173 -0.016932 0
0.997375 -0.014746 0
0.998444 -0.012932 0
0.999297 -0.011115 0
1.000016 -0.009636 0
1.000623 -0.008491 0
1.001076 -0.007351 0
1.001450 -0.006370 0
1.001722 -0.005530 0
1.001937 -0.004793 0
1.002112 -0.004147 0
1.002254 -0.003580 0
1.002371 -0.003085 0
1.002469 -0.002654 0
1.002552 -0.002278 0
1.002623 -0.001953 0
1.002686 -0.001672 0
1.002740 -0.001430 0
1.002789 -0.001222 0
1.002831 -0.001044 0
1.002868 -0.000891 0
1.002901 -0.000761 0
1.002929 -0.000649 0
1.002954 -0.000554 0
1.002975 -0.000473 0
1.002994 -0.000403 0
1.003009 -0.000344 0
1.003022 -0.000294 0
1.003033 -0.000251 0
1.003042 -0.000214 0
1.003050 -0.000183 0
1.003056 -0.000157 0
1.003061 -0.000134 0
1.003065 -0.000115 0
1.003068 -0.000098 0
1.003070 -0.000084 0
1.003072 -0.000072 0
1.003073 -0.000062 0
1.003073 -0.000054 0
1.003073 -0.000047 0
1.003072 -0.000041 0
1.003071 -0.000037 0
1.003069 -0.000033 0
1.003066 -0.000030 0
1.003062 -0.000029 0
1.003057 -0.000029 0
1.003051 -0.000030 0
1.003043 -0.000032 0
1.003032 -0.000036 0
1.003018 -0.000042 0
1.002999 -0.000051 0
1.002976 -0.000061 0
1.002945 -0.000074 0
1.002907 -0.000089 0
1.002860 -0.000106 0
1.002802 -0.000115 0
1.000000 -0.021347 0
0.983467 -0.041000 0
0.974172 -0.112583 0
0.938793 -0.134831 0
0.891600 -0.260545 0
0.789483 -0.207735 0
0.442928 -0.155517 0
0.348465 -0.166425 0
0.000000 0.000000 0
0.000000 0.000000 0
0.000000 0.000000 0
0.000000 0.000000 0
-0.059957 -0.225125 0
-0.390041 -0.561372 0
-0.278085 -0.479710 0
0.035166 -0.068692 0
0.251567 0.289919 0
0.415333 0.524299 0
0.482119 0.685298 0
0.501485 0.742079 0
0.575025 0.633133 0
0.636421 0.443144 0
0.601512 0.298723 0
0.539276 0.198506 0
0.520355 0.104348 0
0.549400 0.020139 0
0.600052 -0.043229 0
0.659880 -0.085963 0
0.721000 -0.110149 0
0.775727 -0.119563 0
0.820990 -0.119760 0
0.858149 -0.115009 0
0.889464 -0.107428 0
0.915395 -0.098287 0
0.936146 -0.088413 0
0.952228 -0.078535 0
0.964573 -0.069371 0
0.974193 -0.060815 0
0.982194 -0.052522 0
0.987780 -0.044931 0
0.990900 -0.038475 0
0.993610 -0.032947 0
0.995922 -0.028537 0
0.997672 -0.024902 0
0.998907 -0.021072 0
0.999863 -0.017931 0
1.000669 -0.015795 0
1.001235 -0.013741 0