# vtk DataFile Version 2.0
generated by CFD-lab course output (written by Tobias Neckel) 
ASCII

DATASET STRUCTURED_GRID
DIMENSIONS  101 21 1 
POINTS 2121 float

0.000000 0.000000 0
0.100000 0.000000 0
0.200000 0.000000 0
0.300000 0.000000 0
0.400000 0.000000 0
0.500000 0.000000 0
0.600000 0.000000 0
0.700000 0.000000 0
0.800000 0.000000 0
0.900000 0.000000 0
1.000000 0.000000 0
1.100000 0.000000 0
1.200000 0.000000 0
1.300000 0.000000 0
1.400000 0.000000 0
1.500000 0.000000 0
1.600000 0.000000 0
1.700000 0.000000 0
1.800000 0.000000 0
1.900000 0.000000 0
2.000000 0.000000 0
2.100000 0.000000 0
2.200000 0.000000 0
2.300000 0.000000 0
2.400000 0.000000 0
2.500000 0.000000 0
2.600000 0.000000 0
2.700000 0.000000 0
2.800000 0.000000 0
2.900000 0.000000 0
3.000000 0.000000 0
3.100000 0.000000 0
3.200000 0.000000 0
3.300000 0.000000 0
3.400000 0.000000 0
3.500000 0.000000 0
3.600000 0.000000 0
3.700000 0.000000 0
3.800000 0.000000 0
3.900000 0.000000 0
4.000000 0.000000 0
4.100000 0.000000 0
4.200000 0.000000 0
4.300000 0.000000 0
4.400000 0.000000 0
4.500000 0.000000 0
4.600000 0.000000 0
4.700000 0.000000 0
4.800000 0.000000 0
4.900000 0.000000 0
5.000000 0.000000 0
5.100000 0.000000 0
5.200000 0.000000 0
5.300000 0.000000 0
5.400000 0.000000 0
5.500000 0.000000 0
5.600000 0.000000 0
5.700000 0.000000 0
5.800000 0.000000 0
5.900000 0.000000 0
6.000000 0.000000 0
6.100000 0.000000 0
6.200000 0.000000 0
6.300000 0.000000 0
6.400000 0.000000 0
6.500000 0.000000 0
6.600000 0.000000 0
6.700000 0.000000 0
6.800000 0.000000 0
6.900000 0.000000 0
7.000000 0.000000 0
7.100000 0.000000 0
7.200000 0.000000 0
7.300000 0.000000 0
7.400000 0.000000 0
7.500000 0.000000 0
7.600000 0.000000 0
7.700000 0.000000 0
7.800000 0.000000 0
7.900000 0.000000 0
8.000000 0.000000 0
8.100000 0.000000 0
8.200000 0.000000 0
8.300000 0.000000 0
8.400000 0.000000 0
8.500000 0.000000 0
8.600000 0.000000 0
8.700000 0.000000 0
8.800000 0.000000 0
8.900000 0.000000 0
9.000000 0.000000 0
9.100000 0.000000 0
9.200000 0.000000 0
9.300000 0.000000 0
9.400000 0.000000 0
9.500000 0.000000 0
9.600000 0.000000 0
9.700000 0.000000 0
9.800000 0.000000 0
9.900000 0.000000 0
10.000000 0.000000 0
0.000000 0.100000 0
0.100000 0.100000 0
0.200000 0.100000 0
0.300000 0.100000 0
0.400000 0.100000 0
0.500000 0.100000 0
0.600000 0.100000 0
0.700000 0.100000 0
0.800000 0.100000 0
0.900000 0.100000 0
1.000000 0.100000 0
1.100000 0.100000 0
1.200000 0.100000 0
1.300000 0.100000 0
1.400000 0.100000 0
1.500000 0.100000 0
1.600000 0.100000 0
1.700000 0.100000 0
1.800000 0.100000 0
1.900000 0.100000 0
2.000000 0.100000 0
2.100000 0.100000 0
2.200000 0.100000 0
2.300000 0.100000 0
2.400000 0.100000 0
2.500000 0.100000 0
2.600000 0.100000 0
2.700000 0.100000 0
2.800000 0.100000 0
2.900000 0.100000 0
3.000000 0.100000 0
3.100000 0.100000 0
3.200000 0.100000 0
3.300000 0.100000 0
3.400000 0.100000 0
3.500000 0.100000 0
3.600000 0.100000 0
3.700000 0.100000 0
3.800000 0.100000 0
3.900000 0.100000 0
4.000000 0.100000 0
4.100000 0.100000 0
4.200000 0.100000 0
4.300000 0.100000 0
4.400000 0.100000 0
4.500000 0.100000 0
4.600000 0.100000 0
4.700000 0.100000 0
4.800000 0.100000 0
4.900000 0.100000 0
5.000000 0.100000 0
5.100000 0.100000 0
5.200000 0.100000 0
5.300000 0.100000 0
5.400000 0.100000 0
5.500000 0.100000 0
5.600000 0.100000 0
5.700000 0.100000 0
5.800000 0.100000 0
5.900000 0.100000 0
6.000000 0.100000 0
6.100000 0.100000 0
6.200000 0.100000 0
6.300000 0.100000 0
6.400000 0.100000 0
6.500000 0.100000 0
6.600000 0.100000 0
6.700000 0.100000 0
6.800000 0.100000 0
6.900000 0.100000 0
7.000000 0.100000 0
7.100000 0.100000 0
7.200000 0.100000 0
7.300000 0.100000 0
7.400000 0.100000 0
7.500000 0.100000 0
7.600000 0.100000 0
7.700000 0.100000 0
7.800000 0.100000 0
7.900000 0.100000 0
8.000000 0.100000 0
8.100000 0.100000 0
8.200000 0.100000 0
8.300000 0.100000 0
8.400000 0.100000 0
8.500000 0.100000 0
8.600000 0.100000 0
8.700000 0.100000 0
8.800000 0.100000 0
8.900000 0.100000 0
9.000000 0.100000 0
9.100000 0.100000 0
9.200000 0.100000 0
9.300000 0.100000 0
9.400000 0.100000 0
9.500000 0.100000 0
9.600000 0.100000 0
9.700000 0.100000 0
9.800000 0.100000 0
9.900000 0.100000 0
10.000000 0.100000 0
0.000000 0.200000 0
0.100000 0.200000 0
0.200000 0.200000 0
0.300000 0.200000 0
0.400000 0.200000 0
0.500000 0.200000 0
0.600000 0.200000 0
0.700000 0.200000 0
0.800000 0.200000 0
0.900000 0.200000 0
1.000000 0.200000 0
1.100000 0.200000 0
1.200000 0.200000 0
1.300000 0.200000 0
1.400000 0.200000 0
1.500000 0.200000 0
1.600000 0.200000 0
1.700000 0.200000 0
1.800000 0.200000 0
1.900000 0.200000 0
2.000000 0.200000 0
2.100000 0.200000 0
2.200000 0.200000 0
2.300000 0.200000 0
2.400000 0.200000 0
2.500000 0.200000 0
2.600000 0.200000 0
2.700000 0.200000 0
2.800000 0.200000 0
2.900000 0.200000 0
3.000000 0.200000 0
3.100000 0.200000 0
3.200000 0.200000 0
3.300000 0.200000 0
3.400000 0.200000 0
3.500000 0.200000 0
3.600000 0.200000 0
3.700000 0.200000 0
3.800000 0.200000 0
3.900000 0.200000 0
4.000000 0.200000 0
4.100000 0.200000 0
4.200000 0.200000 0
4.300000 0.200000 0
4.400000 0.200000 0
4.500000 0.200000 0
4.600000 0.200000 0
4.700000 0.200000 0
4.800000 0.200000 0
4.900000 0.200000 0
5.000000 0.200000 0
5.100000 0.200000 0
5.200000 0.200000 0
5.300000 0.200000 0
5.400000 0.200000 0
5.500000 0.200000 0
5.600000 0.200000 0
5.700000 0.200000 0
5.800000 0.200000 0
5.900000 0.200000 0
6.000000 0.200000 0
6.100000 0.200000 0
6.200000 0.200000 0
6.300000 0.200000 0
6.400000 0.200000 0
6.500000 0.200000 0
6.600000 0.200000 0
6.700000 0.200000 0
6.800000 0.200000 0
6.900000 0.200000 0
7.000000 0.200000 0
7.100000 0.200000 0
7.200000 0.200000 0
7.300000 0.200000 0
7.400000 0.200000 0
7.500000 0.200000 0
7.600000 0.200000 0
7.700000 0.200000 0
7.800000 0.200000 0
7.900000 0.200000 0
8.000000 0.200000 0
8.100000 0.200000 0
8.200000 0.200000 0
8.300000 0.200000 0
8.400000 0.200000 0
8.500000 0.200000 0
8.600000 0.200000 0
8.700000 0.200000 0
8.800000 0.200000 0
8.900000 0.200000 0
9.000000 0.200000 0
9.100000 0.200000 0
9.200000 0.200000 0
9.300000 0.200000 0
9.400000 0.200000 0
9.500000 0.200000 0
9.600000 0.200000 0
9.700000 0.200000 0
9.800000 0.200000 0
9.900000 0.200000 0
10.000000 0.200000 0
0.000000 0.300000 0
0.100000 0.300000 0
0.200000 0.300000 0
0.300000 0.300000 0
0.400000 0.300000 0
0.500000 0.300000 0
0.600000 0.300000 0
0.700000 0.300000 0
0.800000 0.300000 0
0.900000 0.300000 0
1.000000 0.300000 0
1.100000 0.300000 0
1.200000 0.300000 0
1.300000 0.300000 0
1.400000 0.300000 0
1.500000 0.300000 0
1.600000 0.300000 0
1.700000 0.300000 0
1.800000 0.300000 0
1.900000 0.300000 0
2.000000 0.300000 0
2.100000 0.300000 0
2.200000 0.300000 0
2.300000 0.300000 0
2.400000 0.300000 0
2.500000 0.300000 0
2.600000 0.300000 0
2.700000 0.300000 0
2.800000 0.300000 0
2.900000 0.300000 0
3.000000 0.300000 0
3.100000 0.300000 0
3.200000 0.300000 0
3.300000 0.300000 0
3.400000 0.300000 0
3.500000 0.300000 0
3.600000 0.300000 0
3.700000 0.300000 0
3.800000 0.300000 0
3.900000 0.300000 0
4.000000 0.300000 0
4.100000 0.300000 0
4.200000 0.300000 0
4.300000 0.300000 0
4.400000 0.300000 0
4.500000 0.300000 0
4.600000 0.300000 0
4.700000 0.300000 0
4.800000 0.300000 0
4.900000 0.300000 0
5.000000 0.300000 0
5.100000 0.300000 0
5.200000 0.300000 0
5.300000 0.300000 0
5.400000 0.300000 0
5.500000 0.300000 0
5.600000 0.300000 0
5.700000 0.300000 0
5.800000 0.300000 0
5.900000 0.300000 0
6.000000 0.300000 0
6.100000 0.300000 0
6.200000 0.300000 0
6.300000 0.300000 0
6.400000 0.300000 0
6.500000 0.300000 0
6.600000 0.300000 0
6.700000 0.300000 0
6.800000 0.300000 0
6.900000 0.300000 0
7.000000 0.300000 0
7.100000 0.300000 0
7.200000 0.300000 0
7.300000 0.300000 0
7.400000 0.300000 0
7.500000 0.300000 0
7.600000 0.300000 0
7.700000 0.300000 0
7.800000 0.300000 0
7.900000 0.300000 0
8.000000 0.300000 0
8.100000 0.300000 0
8.200000 0.300000 0
8.300000 0.300000 0
8.400000 0.300000 0
8.500000 0.300000 0
8.600000 0.300000 0
8.700000 0.300000 0
8.800000 0.300000 0
8.900000 0.300000 0
9.000000 0.300000 0
9.100000 0.300000 0
9.200000 0.300000 0
9.300000 0.300000 0
9.400000 0.300000 0
9.500000 0.300000 0
9.600000 0.300000 0
9.700000 0.300000 0
9.800000 0.300000 0
9.900000 0.300000 0
10.000000 0.300000 0
0.000000 0.400000 0
0.100000 0.400000 0
0.200000 0.400000 0
0.300000 0.400000 0
0.400000 0.400000 0
0.500000 0.400000 0
0.600000 0.400000 0
0.700000 0.400000 0
0.800000 0.400000 0
0.900000 0.400000 0
1.000000 0.400000 0
1.100000 0.400000 0
1.200000 0.400000 0
1.300000 0.400000 0
1.400000 0.400000 0
1.500000 0.400000 0
1.600000 0.400000 0
1.700000 0.400000 0
1.800000 0.400000 0
1.900000 0.400000 0
2.000000 0.400000 0
2.100000 0.400000 0
2.200000 0.400000 0
2.300000 0.400000 0
2.400000 0.400000 0
2.500000 0.400000 0
2.600000 0.400000 0
2.700000 0.400000 0
2.800000 0.400000 0
2.900000 0.400000 0
3.000000 0.400000 0
3.100000 0.400000 0
3.200000 0.400000 0
3.300000 0.400000 0
3.400000 0.400000 0
3.500000 0.400000 0
3.600000 0.400000 0
3.700000 0.400000 0
3.800000 0.400000 0
3.900000 0.400000 0
4.000000 0.400000 0
4.100000 0.400000 0
4.200000 0.400000 0
4.300000 0.400000 0
4.400000 0.400000 0
4.500000 0.400000 0
4.600000 0.400000 0
4.700000 0.400000 0
4.800000 0.400000 0
4.900000 0.400000 0
5.000000 0.400000 0
5.100000 0.400000 0
5.200000 0.400000 0
5.300000 0.400000 0
5.400000 0.400000 0
5.500000 0.400000 0
5.600000 0.400000 0
5.700000 0.400000 0
5.800000 0.400000 0
5.900000 0.400000 0
6.000000 0.400000 0
6.100000 0.400000 0
6.200000 0.400000 0
6.300000 0.400000 0
6.400000 0.400000 0
6.500000 0.400000 0
6.600000 0.400000 0
6.700000 0.400000 0
6.800000 0.400000 0
6.900000 0.400000 0
7.000000 0.400000 0
7.100000 0.400000 0
7.200000 0.400000 0
7.300000 0.400000 0
7.400000 0.400000 0
7.500000 0.400000 0
7.600000 0.400000 0
7.700000 0.400000 0
7.800000 0.400000 0
7.900000 0.400000 0
8.000000 0.400000 0
8.100000 0.400000 0
8.200000 0.400000 0
8.300000 0.400000 0
8.400000 0.400000 0
8.500000 0.400000 0
8.600000 0.400000 0
[...]
POINT_DATA 2121 

VECTORS velocity float
0.500000 0.000000 0
0.000010 0.000000 0
0.000029 0.000000 0
0.000030 0.000000 0
-0.000019 0.000000 0
-0.000151 0.000000 0
-0.000393 0.000000 0
-0.000761 0.000000 0
-0.001236 0.000000 0
-0.001782 0.000000 0
-0.002364 0.000000 0
-0.002968 0.000000 0
-0.003587 0.000000 0
-0.004212 0.000000 0
-0.004608 0.000000 0
-0.004109 0.000000 0
-0.002657 0.000000 0
-0.000357 0.000000 0
0.002231 0.000000 0
0.004301 0.000000 0
0.005622 0.000000 0
0.006300 0.000000 0
0.006486 0.000000 0
0.006289 0.000000 0
0.005791 0.000000 0
0.005103 0.000000 0
0.004121 0.000000 0
0.002737 0.000000 0
0.001110 0.000000 0
-0.000398 0.000000 0
-0.001342 0.000000 0
-0.001479 0.000000 0
-0.000959 0.000000 0
-0.000112 0.000000 0
0.000754 0.000000 0
0.001493 0.000000 0
0.002048 0.000000 0
0.002341 0.000000 0
0.002308 0.000000 0
0.002252 0.000000 0
0.003142 0.000000 0
0.001115 0.000000 0
-0.003261 0.000000 0
-0.007440 0.000000 0
-0.010596 0.000000 0
-0.003303 0.000000 0
0.028088 0.000000 0
0.040645 0.000000 0
0.006371 0.000000 0
-0.016916 0.000000 0
-0.020116 0.000000 0
-0.003313 0.000000 0
0.002457 0.000000 0
0.002421 0.000000 0
0.000457 0.000000 0
-0.002043 0.000000 0
-0.004190 0.000000 0
-0.005828 0.000000 0
-0.007024 0.000000 0
-0.007879 0.000000 0
-0.008510 0.000000 0
-0.008544 0.000000 0
-0.007559 0.000000 0
-0.006183 0.000000 0
-0.007484 0.000000 0
-0.008112 0.000000 0
-0.008478 0.000000 0
-0.008731 0.000000 0
-0.008763 0.000000 0
-0.008656 0.000000 0
-0.008275 0.000000 0
-0.007290 0.000000 0
-0.005996 0.000000 0
-0.004347 0.000000 0
-0.001864 0.000000 0
0.002280 0.000000 0
0.008328 0.000000 0
0.010523 0.000000 0
0.002922 0.000000 0
-0.004304 0.000000 0
0.015146 0.000000 0
0.021120 0.000000 0
0.017277 0.000000 0
0.010809 0.000000 0
0.003226 0.000000 0
-0.000179 0.000000 0
0.003709 0.000000 0
0.011053 0.000000 0
0.015102 0.000000 0
0.014768 0.000000 0
0.011962 0.000000 0
0.009178 0.000000 0
0.006966 0.000000 0
0.005393 0.000000 0
0.004378 0.000000 0
0.003694 0.000000 0
0.003115 0.000000 0
0.002403 0.000000 0
0.001918 0.000000 0
0.001237 0.000000 0
0.000963 0.000000 0
1.000000 -0.002975 0
1.006541 -0.009304 0
1.019941 -0.016307 0
1.040799 -0.023844 0
1.069784 -0.031581 0
1.107049 -0.038700 0
1.151586 -0.043955 0
1.200948 -0.045782 0
1.249662 -0.043647 0
1.293449 -0.038821 0
1.330514 -0.033228 0
1.360985 -0.028875 0
1.387391 -0.027686 0
1.414588 -0.030657 0
1.448020 -0.035646 0
1.488687 -0.036980 0
1.529502 -0.029600 0
1.558557 -0.011954 0
1.563798 0.012670 0
1.540233 0.036606 0
1.491703 0.054669 0
1.427536 0.065844 0
1.356194 0.070062 0
1.284953 0.068090 0
1.219677 0.061436 0
1.163614 0.051942 0
1.116798 0.040088 0
1.081796 0.025406 0
1.062725 0.008755 0
1.061899 -0.007375 0
1.078407 -0.019261 0
1.105132 -0.023688 0
1.132066 -0.020321 0
1.151159 -0.011619 0
1.158881 -0.000902 0
1.155417 0.009390 0
1.142323 0.017877 0
1.121537 0.023441 0
1.095681 0.025896 0
1.067285 0.029938 0
1.037774 0.032721 0
1.011245 0.016685 0
0.999110 -0.022369 0
1.028994 -0.067048 0
1.118096 -0.068928 0
1.147823 0.070167 0
1.020101 0.401508 0
0.815152 0.475698 0
0.798534 0.133473 0
0.823440 -0.156449 0
0.685807 -0.201502 0
0.554520 -0.104531 0
0.498045 -0.029284 0
0.467209 -0.009857 0
0.453673 -0.012707 0
0.462274 -0.023386 0
0.491713 -0.034362 0
0.536970 -0.042598 0
0.590961 -0.049086 0
0.650484 -0.055388 0
0.714496 -0.062508 0
0.785226 -0.066577 0
0.862861 -0.062670 0
0.942330 -0.057061 0
1.012055 -0.060441 0
1.074370 -0.067269 0
1.140317 -0.070256 0
1.207490 -0.070897 0
1.274648 -0.069987 0
1.340282 -0.067762 0
1.403097 -0.063276 0
1.460780 -0.054958 0
1.509668 -0.042962 0
1.545218 -0.026875 0
1.561381 -0.002343 0
1.550752 0.034676 0
1.508284 0.078525 0
1.434047 0.084787 0
1.320721 0.021461 0
1.154556 -0.004952 0
1.025515 0.077592 0
0.970133 0.136198 0
0.959724 0.111207 0
0.969813 0.057052 0
0.975501 0.000924 0
0.953797 -0.022501 0
0.895743 0.015323 0
0.801388 0.090740 0
0.684571 0.143501 0
0.567170 0.151129 0
0.461701 0.130211 0
0.371771 0.103789 0
0.298342 0.081965 0
0.240851 0.066449 0
0.190195 0.056216 0
0.150461 0.051322 0
0.098000 0.040047 0
0.075682 0.037239 0
0.031810 0.022987 0
0.012243 0.001677 0
0.010247 0.002194 0
1.000000 -0.006538 0
1.006731 -0.019937 0
1.020391 -0.034256 0
1.041857 -0.049841 0
1.072557 -0.066249 0
1.113452 -0.081802 0
1.163990 -0.093899 0
1.223408 -0.098076 0
1.280628 -0.092501 0
1.329323 -0.080854 0
1.368186 -0.067539 0
1.396756 -0.056881 0
1.417902 -0.053607 0
1.439141 -0.060633 0
1.470170 -0.074103 0
1.516861 -0.081487 0
1.572064 -0.069876 0
1.618882 -0.034301 0
1.635256 0.018319 0
1.613179 0.072089 0
1.558667 0.112691 0
1.484628 0.135503 0
1.401415 0.142577 0
1.318986 0.136512 0
1.249126 0.121333 0
1.194020 0.102873 0
1.143265 0.081812 0
1.101286 0.054068 0
1.078298 0.019891 0
1.078136 -0.015688 0
1.102196 -0.043239 0
1.139725 -0.053664 0
1.176387 -0.046032 0
1.201709 -0.026821 0
1.212612 -0.004264 0
1.211295 0.016554 0
1.199706 0.033875 0
1.178824 0.046637 0
1.151428 0.054248 0
1.120867 0.057902 0
1.095146 0.056036 0
1.075497 0.038660 0
1.041770 -0.017754 0
1.020762 -0.118991 0
1.122475 -0.118833 0
1.207530 0.097991 0
1.235312 0.332667 0
1.341928 0.221562 0
1.302619 -0.008293 0
1.106242 0.112723 0
0.824582 0.268916 0
0.584928 0.187758 0
0.428543 0.087306 0
0.330341 0.044367 0
0.281954 0.004931 0
0.277815 -0.038045 0
0.309590 -0.074702 0
0.366262 -0.099254 0
0.433625 -0.113520 0
0.500520 -0.123542 0
0.564262 -0.134750 0
0.630058 -0.148372 0
0.708321 -0.157112 0
0.807082 -0.149202 0
0.914207 -0.132048 0
1.004553 -0.128271 0
1.068617 -0.133130 0
1.127191 -0.134341 0
1.185438 -0.132803 0
1.241832 -0.128460 0
1.296166 -0.120509 0
1.347670 -0.106583 0
1.393829 -0.084450 0
1.428665 -0.051725 0
1.444423 -0.005546 0
1.434498 0.053085 0
1.397840 0.116693 0
1.332120 0.187550 0
1.190921 0.279479 0
0.954571 0.295194 0
0.800194 0.184410 0
0.760823 0.065778 0
0.753181 0.000308 0
0.771464 -0.015790 0
0.777142 0.016003 0
0.731189 0.079746 0
0.637511 0.152397 0
0.540375 0.211160 0
0.469707 0.234206 0
0.419048 0.222858 0
0.374024 0.195387 0
0.333080 0.163348 0
0.302849 0.130908 0
0.282859 0.108135 0
0.256258 0.090379 0
0.220077 0.092184 0
0.172103 0.074767 0
0.118011 0.066179 0
0.091476 0.063428 0
0.063135 0.021552 0
0.062098 0.003440 0
1.000000 -0.009704 0
1.005573 -0.029692 0
1.017700 -0.051432 0
1.037745 -0.076009 0
1.068988 -0.103175 0
1.113767 -0.130133 0
1.172121 -0.153911 0
1.253899 -0.162420 0
1.326469 -0.149563 0
1.380743 -0.126380 0
1.420581 -0.100662 0
1.442697 -0.078593 0
1.449177 -0.070073 0
1.454027 -0.082927 0
1.473835 -0.113368 0
1.524272 -0.138876 0
1.600686 -0.131623 0
1.685414 -0.075147 0
1.727875 0.018371 0
1.706339 0.113192 0
1.633403 0.183218 0
1.536400 0.223094 0
1.440340 0.235702 0
1.354616 0.220376 0
1.272983 0.186400 0
1.201488 0.157802 0
1.127601 0.132819 0
1.075715 0.090370 0
1.054766 0.031903 0
1.052037 -0.031275 0
1.076430 -0.080852 0
1.114977 -0.097881 0
1.155337 -0.082307 0
1.187001 -0.047846 0
1.204709 -0.010490 0
1.213674 0.022294 0
1.215031 0.050346 0
1.202701 0.071717 0
1.178233 0.083852 0
1.144786 0.086217 0
1.110431 0.078090 0
1.092048 0.070059 0
1.095160 0.032364 0
1.007430 -0.147754 0
0.861744 -0.255697 0
0.864182 -0.042672 0
0.888971 0.267108 0
0.875691 0.408390 0
0.710026 0.369157 0
0.560865 0.321586 0
0.548589 0.319810 0
0.468606 0.291506 0
0.321508 0.225301 0
0.213020 0.136729 0
0.162833 0.039816 0
0.160819 -0.051025 0
0.197635 -0.122811 0
0.264692 -0.166635 0
0.347413 -0.183348 0
0.425346 -0.186028 0
0.487103 -0.192049 0
0.534155 -0.210640 0
0.581644 -0.239698 0
0.650417 -0.262951 0
0.758850 -0.257916 0
0.887441 -0.221683 0
0.986696 -0.192898 0
1.047017 -0.187722 0
1.095406 -0.184633 0
1.138959 -0.178494 0
1.179906 -0.169119 0
1.219628 -0.152626 0
1.257249 -0.123963 0
1.288200 -0.077474 0
1.305464 -0.008181 0
1.301143 0.081254 0
1.273395 0.180898 0
1.213418 0.291701 0
1.117593 0.399004 0
1.030954 0.385770 0
0.933959 0.271335 0
0.838908 0.183205 0
0.766386 0.100561 0
0.712437 0.033086 0
0.651654 0.041193 0
0.579542 0.117125 0
0.511252 0.206132 0
0.468365 0.258540 0
0.458233 0.264823 0
0.467812 0.246806 0
0.479123 0.216174 0
0.485749 0.174959 0
0.477215 0.132182 0
0.440626 0.113035 0
0.382788 0.118994 0
0.297912 0.135472 0
0.231966 0.142108 0
0.171287 0.117861 0
0.125612 0.077858 0
0.120874 0.031051 0
0.121939 0.003696 0
1.000000 -0.012108 0
1.002949 -0.037633 0
1.012075 -0.066427 0
1.027734 -0.101128 0
1.058305 -0.142270 0
1.105999 -0.184934 0
1.172777 -0.234031 0
1.309523 -0.252425 0
1.402367 -0.219346 0
1.451106 -0.174967 0
1.482081 -0.129494 0
1.494899 -0.085479 0
1.469918 -0.064940 0
1.439217 -0.085292 0
1.427582 -0.144349 0
1.462340 -0.208340 0
1.536530 -0.231021 0
1.684832 -0.161492 0
1.792053 -0.002607 0
1.806792 0.166559 0
1.735392 0.282628 0
1.607478 0.328564 0
1.460810 0.324358 0
1.299578 0.303866 0
1.225273 0.274459 0
1.268526 0.248252 0
1.239581 0.207582 0
1.173127 0.126901 0
1.128930 0.043567 0
1.068028 -0.037354 0
0.959640 -0.106180 0
0.883105 -0.132573 0
0.880435 -0.118058 0
0.937246 -0.076196 0
1.015943 -0.030939 0
1.084080 0.006230 0
1.123839 0.044846 0
1.140204 0.083433 0
1.142295 0.112161 0
1.135829 0.125703 0
1.114755 0.108771 0
1.084952 0.053929 0
1.063686 0.066863 0
0.984562 0.114424 0
0.732473 0.024414 0
0.488958 0.070763 0
0.366508 0.321156 0
0.362514 0.400505 0
0.426450 0.306532 0
0.485834 0.274158 0
0.457619 0.361173 0
0.344042 0.414837 0
0.247233 0.342890 0
0.198137 0.203040 0
0.184570 0.057129 0
0.194124 -0.072849 0
0.222809 -0.178577 0
0.274134 -0.249035 0
0.351855 -0.274176 0
0.446902 -0.263234 0
0.532253 -0.243562 0
0.588311 -0.242917 0
0.616352 -0.273377 0
0.636959 -0.326411 0
0.682142 -0.369076 0
0.777734 -0.356122 0
0.905350 -0.292710 0
0.995348 -0.243055 0
1.040616 -0.224750 0
1.072442 -0.212964 0
1.095988 -0.201182 0
1.116492 -0.183930 0
1.137701 -0.153027 0
1.159378 -0.099945 0
1.179277 -0.018494 0
1.174007 0.085149 0
1.139817 0.204412 0
1.076922 0.343348 0
1.027295 0.461938 0
1.013503 0.478823 0
0.951072 0.376450 0
0.878206 0.233346 0
0.841605 0.126775 0
0.792237 0.098937 0
0.695731 0.148893 0
0.586013 0.220143 0
0.509990 0.263569 0
0.484939 0.264173 0
0.495092 0.234754 0
0.524129 0.201963 0
0.555738 0.177444 0
0.570323 0.165251 0
0.544593 0.176027 0
0.472697 0.202556 0
0.382538 0.233088 0
0.298093 0.243002 0
0.244692 0.201387 0
0.218865 0.172528 0
0.214721 0.113836 0
0.223381 0.025220 0
0.227662 0.000769 0
1.000000 -0.012650 0
1.000309 -0.041763 0
1.007684 -0.076215 0
1.009876 -0.122238 0
1.037455 -0.181439 0
1.079906 -0.244605 0
1.159772 -0.357436 0
1.409090 -0.392010 0
1.483834 -0.291147 0
1.480431 -0.206096 0
1.477018 -0.144456 0
1.489135 -0.066432 0
1.386543 -0.014393 0
1.296996 -0.040593 0
1.207881 -0.136493 0
1.182563 -0.247826 0
1.149076 -0.354117 0
1.371968 -0.330672 0
1.614818 -0.103590 0
1.718836 0.169850 0
1.728651 0.382530 0
1.655054 0.497674 0
1.501484 0.543599 0
1.319118 0.455911 0
1.138279 0.217450 0
0.982399 0.143492 0
1.037814 0.228216 0
0.998739 0.201019 0
0.840232 0.137001 0
0.643787 0.138013 0
0.460816 0.104068 0
0.352591 -0.018678 0
0.345379 -0.136450 0
0.429040 -0.183356 0
0.572098 -0.157327 0
0.724380 -0.085603 0
0.853648 -0.005780 0
0.954534 0.053259 0
1.014660 0.088225 0
1.055579 0.113755 0
1.083617 0.128965 0
1.028433 0.121127 0
0.919642 0.132752 0
0.881147 0.183457 0
0.850612 0.239905 0
0.705019 0.323291 0
0.649853 0.393551 0
0.691831 0.348446 0
0.748361 0.245834 0
0.729442 0.290415 0
0.551301 0.461600 0
0.445881 0.501890 0
0.433179 0.371204 0
0.448639 0.199390 0
0.466641 0.043827 0
0.480169 -0.089267 0
0.482809 -0.202823 0
0.473682 -0.295684 0
0.470255 -0.356118 0
0.510917 -0.366429 0
0.581289 -0.333462 0
0.653105 -0.294742 0
0.691788 -0.288350 0
0.696431 -0.328745 0
0.692676 -0.398695 0
0.718715 -0.444895 0
0.812699 -0.410516 0
0.935820 -0.322992 0
1.009181 -0.261731 0
1.037933 -0.233871 0
1.047895 -0.213174 0
1.048402 -0.194344 0
1.040145 -0.166854 0
1.027070 -0.119054 0
1.002925 -0.022816 0
0.965521 0.120709 0
0.916663 0.277979 0
0.877577 0.404217 0
0.886148 0.462419 0
0.932674 0.461988 0
0.961156 0.406626 0
0.938967 0.292667 0
0.891754 0.186525 0
0.820224 0.178955 0
0.708827 0.247412 0
0.609933 0.302861 0
0.556293 0.307200 0
0.542145 0.273433 0
0.544569 0.225629 0
0.544728 0.186155 0
0.535290 0.169975 0
0.507082 0.186100 0
0.462779 0.229802 0
0.411955 0.275085 0
0.372228 0.293594 0
0.364840 0.273313 0
0.382022 0.221331 0
0.404775 0.147828 0
0.466803 0.073337 0
0.494097 0.018104 0
0.502000 -0.005124 0
1.000000 -0.012414 0
0.997748 -0.045313 0
1.003575 -0.075992 0
0.990954 -0.130897 0
1.008336 -0.212299 0
1.016225 -0.307251 0
1.125364 -0.563214 0
1.453180 -0.576487 0
1.354055 -0.290689 0
1.235783 -0.168153 0
1.143695 -0.138199 0
1.117093 0.004995 0
1.272925 0.127197 0
0.813914 0.093368 0
0.468752 -0.029918 0
0.383307 -0.149537 0
0.305316 -0.420427 0
0.552277 -0.627235 0
1.170118 -0.349477 0
1.336631 0.052724 0
1.408324 0.346408 0
1.454849 0.555729 0
1.431783 0.660292 0
1.351669 0.667069 0
1.099160 0.611177 0
0.640227 0.348715 0
0.421850 0.191240 0
0.390435 0.324480 0
0.251045 0.398516 0
0.076853 0.342059 0
0.009029 0.185014 0
-0.000607 -0.017138 0
0.017511 -0.194510 0
0.073920 -0.302917 0
0.184124 -0.326280 0
0.342627 -0.275323 0
0.525264 -0.185310 0
0.692011 -0.077580 0
0.829536 0.011114 0
0.927709 0.056744 0
0.981992 0.135915 0
0.959422 0.217902 0
0.878682 0.214147 0
0.856515 0.183452 0
0.917002 0.200539 0
1.006966 0.271520 0
1.138647 0.334343 0
1.282567 0.301996 0
1.287495 0.268919 0
0.978172 0.471216 0
0.709278 0.644733 0
0.642405 0.532957 0
0.655571 0.340129 0
0.689407 0.169576 0
0.734560 0.025597 0
0.786339 -0.089020 0
0.828918 -0.172093 0
0.844924 -0.236484 0
0.821741 -0.311414 0
0.747760 -0.374271 0
0.675213 -0.385754 0
0.663192 -0.353420 0
0.674435 -0.316706 0
0.664824 -0.327303 0
0.642303 -0.391364 0
0.634801 -0.476149 0
0.682858 -0.509819 0
0.807455 -0.439542 0
0.942521 -0.326868 0
1.012397 -0.251683 0
1.026225 -0.211656 0
1.006844 -0.176185 0
0.960998 -0.131700 0
0.899127 -0.062729 0
0.834710 0.043049 0
0.791200 0.171405 0
0.777815 0.292351 0
0.808459 0.373857 0
0.871470 0.406837 0
0.939433 0.403810 0
0.992769 0.370151 0
1.022052 0.302743 0
1.002557 0.245512 0
0.890593 0.281859 0
0.753910 0.359179 0
0.668973 0.372672 0
0.636277 0.331352 0
0.631170 0.275892 0
0.628054 0.232167 0
0.609205 0.211237 0
0.571235 0.215086 0
0.521916 0.237757 0
0.483456 0.271149 0
0.474595 0.293103 0
0.502707 0.280198 0
0.561902 0.233202 0
0.636137 0.161448 0
0.707748 0.087743 0
0.759630 0.024510 0
0.789419 -0.009982 0
0.797193 -0.015055 0
1.000000 -0.010394 0
0.999078 -0.045334 0
0.989842 -0.069420 0
0.982535 -0.126997 0
0.965745 -0.206708 0
0.922242 -0.361632 0
1.011851 -0.794390 0
0.716997 -0.546950 0
0.003345 0.000000 0
0.005163 0.000000 0
0.422303 -0.030031 0
0.358445 -0.195664 0
0.400488 0.288784 0
0.053489 0.763578 0
-0.199475 0.294112 0
-0.404275 -0.084391 0
-0.144761 -0.523088 0
-0.066753 -1.195476 0
0.361961 -0.887946 0
0.746877 -0.068358 0
0.975145 0.264309 0
1.120928 0.474212 0
1.175903 0.646778 0
1.154160 0.788532 0
1.036280 0.928889 0
0.819624 0.820800 0
0.421066 0.478006 0
0.226603 0.371821 0
0.108385 0.450581 0
0.071310 0.380026 0
0.098868 0.181525 0
0.124186 -0.027161 0
0.118730 -0.210978 0
0.110089 -0.349972 0
0.131389 -0.426036 0
0.207186 -0.426745 0
0.335645 -0.355165 0
0.485969 -0.251015 0
0.639486 -0.147475 0
0.757922 -0.038703 0
0.819508 0.097249 0
0.879032 0.224435 0
0.919696 0.235657 0
0.947650 0.145135 0
1.009577 0.089452 0
1.141809 0.101644 0
1.300208 0.117948 0
1.326502 0.199596 0
1.098242 0.550228 0
0.764757 0.868630 0
0.680599 0.797364 0
0.709708 0.555596 0
0.760636 0.324201 0
0.814164 0.120399 0
0.855194 -0.053108 0
0.896210 -0.183628 0
0.940896 -0.261411 0
0.987928 -0.288509 0
1.027404 -0.258957 0
1.018411 -0.219904 0
0.964395 -0.248897 0
0.865253 -0.293967 0
0.761018 -0.289985 0
0.699672 -0.296617 0
0.657208 -0.368676 0
0.617462 -0.485454 0
0.608320 -0.583174 0
0.678685 -0.582659 0
0.825360 -0.466678 0
0.949682 -0.317580 0
0.997242 -0.207626 0
0.979763 -0.129123 0
0.932395 -0.059141 0
0.871453 0.007229 0
0.816932 0.085106 0
0.794643 0.177598 0
0.813970 0.260714 0
0.870144 0.310556 0
0.944866 0.331440 0
1.015559 0.340684 0
1.076832 0.324002 0
1.111618 0.282873 0
1.053685 0.317978 0
0.891864 0.427597 0
0.775334 0.469027 0
0.722628 0.420489 0
0.706423 0.344998 0
0.702107 0.281651 0
0.693988 0.247589 0
0.675553 0.242969 0
0.652239 0.257258 0
0.637478 0.273874 0
0.648929 0.277119 0
0.698497 0.255829 0
0.773055 0.206281 0
0.846765 0.139879 0
0.908293 0.075480 0
0.949532 0.024330 0
0.974439 -0.008338 0
0.979197 -0.019464 0
0.983209 -0.020458 0
1.000000 -0.011488 0
1.010602 -0.035150 0
0.966217 -0.059447 0
0.985934 -0.106799 0
0.892678 -0.152005 0
0.884110 -0.353355 0
0.659183 -0.431719 0
0.000000 0.001836 0
-0.591375 0.161190 0
-0.494896 0.000000 0
0.000000 0.000000 0
-0.029183 0.027656 0
-0.191738 0.432151 0
-0.124348 0.693330 0
-0.182866 0.427844 0
-0.376841 -0.204253 0
-0.203668 -0.757951 0
-0.160935 -1.133959 0
-0.313495 -1.163110 0
0.176608 -0.560463 0
0.574148 -0.027645 0
0.803745 0.354969 0
0.962994 0.627058 0
1.034635 0.806690 0
1.023887 0.945710 0
1.030832 0.963927 0
0.848612 0.784258 0
0.537477 0.637158 0
0.374098 0.553807 0
0.378351 0.351575 0
0.375697 0.132136 0
0.343624 -0.037003 0
0.320213 -0.180415 0
0.304315 -0.315577 0
0.292250 -0.423380 0
0.295340 -0.479581 0
0.333798 -0.464095 0
0.415821 -0.381424 0
0.514822 -0.260841 0
0.610890 -0.123279 0
0.696952 0.014804 0
0.803617 0.117712 0
0.924238 0.145527 0
0.992729 0.093569 0
0.999795 0.006378 0
0.992926 -0.019113 0
0.940236 0.149648 0
0.756544 0.503960 0
0.526767 0.830661 0
0.560485 0.888856 0
0.725601 0.699780 0
0.850421 0.452918 0
0.933449 0.235671 0
1.000546 0.075015 0
1.050957 -0.056451 0
1.085546 -0.174724 0
1.104869 -0.263814 0
1.104619 -0.322994 0
1.088361 -0.341900 0
1.092554 -0.311266 0
1.106912 -0.232599 0
1.081378 -0.150047 0
1.036480 -0.151129 0
1.001439 -0.223496 0
0.958279 -0.309158 0
0.884616 -0.427265 0
0.772368 -0.571047 0
0.700853 -0.656587 0
0.761945 -0.597869 0
0.874047 -0.423569 0
0.948873 -0.241742 0
0.964267 -0.111344 0
0.948084 -0.023395 0
0.920269 0.052729 0
0.888429 0.119854 0
0.871579 0.174363 0
0.886776 0.216845 0
0.939074 0.242955 0
1.007473 0.261416 0
1.084355 0.271839 0
1.141564 0.274087 0
1.088628 0.325884 0
0.932914 0.465261 0
0.803277 0.560205 0
0.751661 0.528410 0
0.741300 0.441578 0
0.746127 0.351867 0
0.751534 0.288322 0
0.754912 0.258715 0
0.762151 0.252981 0
0.784207 0.253156 0
0.825334 0.241062 0
0.880004 0.210125 0
0.940154 0.168971 0
0.996411 0.131924 0
1.034628 0.097959 0
1.052136 0.058676 0
1.054638 0.021591 0
1.048156 -0.005161 0
1.040770 -0.018757 0
1.041408 -0.023040 0
1.000000 -0.020992 0
0.982796 -0.011545 0
0.977524 -0.044749 0
0.945097 -0.053456 0
0.882507 -0.104882 0
0.842024 -0.128134 0
0.483301 0.020628 0
0.383147 0.043140 0
0.000000 0.000000 0
0.000000 0.000000 0
0.000000 0.000000 0
0.000000 0.000000 0
0.030734 0.387026 0
0.411094 0.754704 0
0.325432 0.546603 0
0.216501 -0.063590 0
-0.183034 -0.738995 0
-0.154866 -1.085650 0
-0.327146 -1.225491 0
-0.181798 -0.956003 0
0.236631 -0.362830 0
0.547706 0.085365 0
0.788264 0.415885 0
0.938859 0.727637 0
1.016187 0.932691 0
1.045541 0.996072 0
0.991156 0.971358 0
0.807244 0.846333 0
0.721267 0.609705 0
0.628864 0.378425 0
0.477343 0.216249 0
0.358679 0.028320 0
0.325383 -0.171672 0
0.336606 -0.322011 0
0.363709 -0.417063 0
0.399135 -0.468294 0
0.433620 -0.475649 0
0.470878 -0.432041 0
0.521170 -0.342546 0
0.590067 -0.220835 0
0.677298 -0.095479 0
0.779234 -0.002853 0
0.874814 0.046543 0
0.923116 0.069576 0
0.886815 0.089254 0
0.754391 0.161200 0
0.573354 0.354328 0
0.474390 0.613064 0
0.544863 0.746285 0
0.752916 0.669793 0
0.937579 0.507426 0
1.065325 0.347746 0
1.153984 0.174074 0
1.234429 0.002889 0
1.312939 -0.138110 0
1.364103 -0.237543 0
1.378188 -0.280487 0
1.352623 -0.272004 0
1.286182 -0.246895 0
1.200679 -0.238458 0
1.131257 -0.237725 0
1.120559 -0.223539 0
1.158574 -0.210050 0
1.185118 -0.218420 0
1.191985 -0.251857 0