# vtk DataFile Version 2.0
generated by CFD-lab course output (written by Tobias Neckel) 
ASCII

DATASET STRUCTURED_GRID
DIMENSIONS  101 21 1 
POINTS 2121 float

0.000000 0.000000 0
0.100000 0.000000 0
0.200000 0.000000 0
0.300000 0.000000 0
0.400000 0.000000 0
0.500000 0.000000 0
0.600000 0.000000 0
0.700000 0.000000 0
0.800000 0.000000 0
0.900000 0.000000 0
1.000000 0.000000 0
1.100000 0.000000 0
1.200000 0.000000 0
1.300000 0.000000 0
1.400000 0.000000 0
1.500000 0.000000 0
1.600000 0.000000 0
1.700000 0.000000 0
1.800000 0.000000 0
1.900000 0.000000 0
2.000000 0.000000 0
2.100000 0.000000 0
2.200000 0.000000 0
2.300000 0.000000 0
2.400000 0.000000 0
2.500000 0.000000 0
2.600000 0.000000 0
2.700000 0.000000 0
2.800000 0.000000 0
2.900000 0.000000 0
3.000000 0.000000 0
3.100000 0.000000 0
3.200000 0.000000 0
3.300000 0.000000 0
3.400000 0.000000 0
3.500000 0.000000 0
3.600000 0.000000 0
3.700000 0.000000 0
3.800000 0.000000 0
3.900000 0.000000 0
4.000000 0.000000 0
4.100000 0.000000 0
4.200000 0.000000 0
4.300000 0.000000 0
4.400000 0.000000 0
4.500000 0.000000 0
4.600000 0.000000 0
4.700000 0.000000 0
4.800000 0.000000 0
4.900000 0.000000 0
5.000000 0.000000 0
5.100000 0.000000 0
5.200000 0.000000 0
5.300000 0.000000 0
5.400000 0.000000 0
5.500000 0.000000 0
5.600000 0.000000 0
5.700000 0.000000 0
5.800000 0.000000 0
5.900000 0.000000 0
6.000000 0.000000 0
6.100000 0.000000 0
6.200000 0.000000 0
6.300000 0.000000 0
6.400000 0.000000 0
6.500000 0.000000 0
6.600000 0.000000 0
6.700000 0.000000 0
6.800000 0.000000 0
6.900000 0.000000 0
7.000000 0.000000 0
7.100000 0.000000 0
7.200000 0.000000 0
7.300000 0.000000 0
7.400000 0.000000 0
7.500000 0.000000 0
7.600000 0.000000 0
7.700000 0.000000 0
7.800000 0.000000 0
7.900000 0.000000 0
8.000000 0.000000 0
8.100000 0.000000 0
8.200000 0.000000 0
8.300000 0.000000 0
8.400000 0.000000 0
8.500000 0.000000 0
8.600000 0.000000 0
8.700000 0.000000 0
8.800000 0.000000 0
8.900000 0.000000 0
9.000000 0.000000 0
9.100000 0.000000 0
9.200000 0.000000 0
9.300000 0.000000 0
9.400000 0.000000 0
9.500000 0.000000 0
9.600000 0.000000 0
9.700000 0.000000 0
9.800000 0.000000 0
9.900000 0.000000 0
10.000000 0.000000 0
0.000000 0.100000 0
0.100000 0.100000 0
0.200000 0.100000 0
0.300000 0.100000 0
0.400000 0.100000 0
0.500000 0.100000 0
0.600000 0.100000 0
0.700000 0.100000 0
0.800000 0.100000 0
0.900000 0.100000 0
1.000000 0.100000 0
1.100000 0.100000 0
1.200000 0.100000 0
1.300000 0.100000 0
1.400000 0.100000 0
1.500000 0.100000 0
1.600000 0.100000 0
1.700000 0.100000 0
1.800000 0.100000 0
1.900000 0.100000 0
2.000000 0.100000 0
2.100000 0.100000 0
2.200000 0.100000 0
2.300000 0.100000 0
2.400000 0.100000 0
2.500000 0.100000 0
2.600000 0.100000 0
2.700000 0.100000 0
2.800000 0.100000 0
2.900000 0.100000 0
3.000000 0.100000 0
3.100000 0.100000 0
3.200000 0.100000 0
3.300000 0.100000 0
3.400000 0.100000 0
3.500000 0.100000 0
3.600000 0.100000 0
3.700000 0.100000 0
3.800000 0.100000 0
3.900000 0.100000 0
4.000000 0.100000 0
4.100000 0.100000 0
4.200000 0.100000 0
4.300000 0.100000 0
4.400000 0.100000 0
4.500000 0.100000 0
4.600000 0.100000 0
4.700000 0.100000 0
4.800000 0.100000 0
4.900000 0.100000 0
5.000000 0.100000 0
5.100000 0.100000 0
5.200000 0.100000 0
5.300000 0.100000 0
5.400000 0.100000 0
5.500000 0.100000 0
5.600000 0.100000 0
5.700000 0.100000 0
5.800000 0.100000 0
5.900000 0.100000 0
6.000000 0.100000 0
6.100000 0.100000 0
6.200000 0.100000 0
6.300000 0.100000 0
6.400000 0.100000 0
6.500000 0.100000 0
6.600000 0.100000 0
6.700000 0.100000 0
6.800000 0.100000 0
6.900000 0.100000 0
7.000000 0.100000 0
7.100000 0.100000 0
7.200000 0.100000 0
7.300000 0.100000 0
7.400000 0.100000 0
7.500000 0.100000 0
7.600000 0.100000 0
7.700000 0.100000 0
7.800000 0.100000 0
7.900000 0.100000 0
8.000000 0.100000 0
8.100000 0.100000 0
8.200000 0.100000 0
8.300000 0.100000 0
8.400000 0.100000 0
8.500000 0.100000 0
8.600000 0.100000 0
8.700000 0.100000 0
8.800000 0.100000 0
8.900000 0.100000 0
9.000000 0.100000 0
9.100000 0.100000 0
9.200000 0.100000 0
9.300000 0.100000 0
9.400000 0.100000 0
9.500000 0.100000 0
9.600000 0.100000 0
9.700000 0.100000 0
9.800000 0.100000 0
9.900000 0.100000 0
10.000000 0.100000 0
0.000000 0.200000 0
0.100000 0.200000 0
0.200000 0.200000 0
0.300000 0.200000 0
0.400000 0.200000 0
0.500000 0.200000 0
0.600000 0.200000 0
0.700000 0.200000 0
0.800000 0.200000 0
0.900000 0.200000 0
1.000000 0.200000 0
1.100000 0.200000 0
1.200000 0.200000 0
1.300000 0.200000 0
1.400000 0.200000 0
1.500000 0.200000 0
1.600000 0.200000 0
1.700000 0.200000 0
1.800000 0.200000 0
1.900000 0.200000 0
2.000000 0.200000 0
2.100000 0.200000 0
2.200000 0.200000 0
2.300000 0.200000 0
2.400000 0.200000 0
2.500000 0.200000 0
2.600000 0.200000 0
2.700000 0.200000 0
2.800000 0.200000 0
2.900000 0.200000 0
3.000000 0.200000 0
3.100000 0.200000 0
3.200000 0.200000 0
3.300000 0.200000 0
3.400000 0.200000 0
3.500000 0.200000 0
3.600000 0.200000 0
3.700000 0.200000 0
3.800000 0.200000 0
3.900000 0.200000 0
4.000000 0.200000 0
4.100000 0.200000 0
4.200000 0.200000 0
4.300000 0.200000 0
4.400000 0.200000 0
4.500000 0.200000 0
4.600000 0.200000 0
4.700000 0.200000 0
4.800000 0.200000 0
4.900000 0.200000 0
5.000000 0.200000 0
5.100000 0.200000 0
5.200000 0.200000 0
5.300000 0.200000 0
5.400000 0.200000 0
5.500000 0.200000 0
5.600000 0.200000 0
5.700000 0.200000 0
5.800000 0.200000 0
5.900000 0.200000 0
6.000000 0.200000 0
6.100000 0.200000 0
6.200000 0.200000 0
6.300000 0.200000 0
6.400000 0.200000 0
6.500000 0.200000 0
6.600000 0.200000 0
6.700000 0.200000 0
6.800000 0.200000 0
6.900000 0.200000 0
7.000000 0.200000 0
7.100000 0.200000 0
7.200000 0.200000 0
7.300000 0.200000 0
7.400000 0.200000 0
7.500000 0.200000 0
7.600000 0.200000 0
7.700000 0.200000 0
7.800000 0.200000 0
7.900000 0.200000 0
8.000000 0.200000 0
8.100000 0.200000 0
8.200000 0.200000 0
8.300000 0.200000 0
8.400000 0.200000 0
8.500000 0.200000 0
8.600000 0.200000 0
8.700000 0.200000 0
8.800000 0.200000 0
8.900000 0.200000 0
9.000000 0.200000 0
9.100000 0.200000 0
9.200000 0.200000 0
9.300000 0.200000 0
9.400000 0.200000 0
9.500000 0.200000 0
9.600000 0.200000 0
9.700000 0.200000 0
9.800000 0.200000 0
9.900000 0.200000 0
10.000000 0.200000 0
0.000000 0.300000 0
0.100000 0.300000 0
0.200000 0.300000 0
0.300000 0.300000 0
0.400000 0.300000 0
0.500000 0.300000 0
0.600000 0.300000 0
0.700000 0.300000 0
0.800000 0.300000 0
0.900000 0.300000 0
1.000000 0.300000 0
1.100000 0.300000 0
1.200000 0.300000 0
1.300000 0.300000 0
1.400000 0.300000 0
1.500000 0.300000 0
1.600000 0.300000 0
1.700000 0.300000 0
1.800000 0.300000 0
1.900000 0.300000 0
2.000000 0.300000 0
2.100000 0.300000 0
2.200000 0.300000 0
2.300000 0.300000 0
2.400000 0.300000 0
2.500000 0.300000 0
2.600000 0.300000 0
2.700000 0.300000 0
2.800000 0.300000 0
2.900000 0.300000 0
3.000000 0.300000 0
3.100000 0.300000 0
3.200000 0.300000 0
3.300000 0.300000 0
3.400000 0.300000 0
3.500000 0.300000 0
3.600000 0.300000 0
3.700000 0.300000 0
3.800000 0.300000 0
3.900000 0.300000 0
4.000000 0.300000 0
4.100000 0.300000 0
4.200000 0.300000 0
4.300000 0.300000 0
4.400000 0.300000 0
4.500000 0.300000 0
4.600000 0.300000 0
4.700000 0.300000 0
4.800000 0.300000 0
4.900000 0.300000 0
5.000000 0.300000 0
5.100000 0.300000 0
5.200000 0.300000 0
5.300000 0.300000 0
5.400000 0.300000 0
5.500000 0.300000 0
5.600000 0.300000 0
5.700000 0.300000 0
5.800000 0.300000 0
5.900000 0.300000 0
6.000000 0.300000 0
6.100000 0.300000 0
6.200000 0.300000 0
6.300000 0.300000 0
6.400000 0.300000 0
6.500000 0.300000 0
6.600000 0.300000 0
6.700000 0.300000 0
6.800000 0.300000 0
6.900000 0.300000 0
7.000000 0.300000 0
7.100000 0.300000 0
7.200000 0.300000 0
7.300000 0.300000 0
7.400000 0.300000 0
7.500000 0.300000 0
7.600000 0.300000 0
7.700000 0.300000 0
7.800000 0.300000 0
7.900000 0.300000 0
8.000000 0.300000 0
8.100000 0.300000 0
8.200000 0.300000 0
8.300000 0.300000 0
8.400000 0.300000 0
8.500000 0.300000 0
8.600000 0.300000 0
8.700000 0.300000 0
8.800000 0.300000 0
8.900000 0.300000 0
9.000000 0.300000 0
9.100000 0.300000 0
9.200000 0.300000 0
9.300000 0.300000 0
9.400000 0.300000 0
9.500000 0.300000 0
9.600000 0.300000 0
9.700000 0.300000 0
9.800000 0.300000 0
9.900000 0.300000 0
10.000000 0.300000 0
0.000000 0.400000 0
0.100000 0.400000 0
0.200000 0.400000 0
0.300000 0.400000 0
0.400000 0.400000 0
0.500000 0.400000 0
0.600000 0.400000 0
0.700000 0.400000 0
0.800000 0.400000 0
0.900000 0.400000 0
1.000000 0.400000 0
1.100000 0.400000 0
1.200000 0.400000 0
1.300000 0.400000 0
1.400000 0.400000 0
1.500000 0.400000 0
1.600000 0.400000 0
1.700000 0.400000 0
1.800000 0.400000 0
1.900000 0.400000 0
2.000000 0.400000 0
2.100000 0.400000 0
2.200000 0.400000 0
2.300000 0.400000 0
2.400000 0.400000 0
2.500000 0.400000 0
2.600000 0.400000 0
2.700000 0.400000 0
2.800000 0.400000 0
2.900000 0.400000 0
3.000000 0.400000 0
3.100000 0.400000 0
3.200000 0.400000 0
3.300000 0.400000 0
3.400000 0.400000 0
3.500000 0.400000 0
3.600000 0.400000 0
3.700000 0.400000 0
3.800000 0.400000 0
3.900000 0.400000 0
4.000000 0.400000 0
4.100000 0.400000 0
4.200000 0.400000 0
4.300000 0.400000 0
4.400000 0.400000 0
4.500000 0.400000 0
4.600000 0.400000 0
4.700000 0.400000 0
4.800000 0.400000 0
4.900000 0.400000 0
5.000000 0.400000 0
5.100000 0.400000 0
5.200000 0.400000 0
5.300000 0.400000 0
5.400000 0.400000 0
5.500000 0.400000 0
5.600000 0.400000 0
5.700000 0.400000 0
5.800000 0.400000 0
5.900000 0.400000 0
6.000000 0.400000 0
6.100000 0.400000 0
6.200000 0.400000 0
6.300000 0.400000 0
6.400000 0.400000 0
6.500000 0.400000 0
6.600000 0.400000 0
6.700000 0.400000 0
6.800000 0.400000 0
6.900000 0.400000 0
7.000000 0.400000 0
7.100000 0.400000 0
7.200000 0.400000 0
7.300000 0.400000 0
7.400000 0.400000 0
7.500000 0.400000 0
7.600000 0.400000 0
7.700000 0.400000 0
7.800000 0.400000 0
7.900000 0.400000 0
8.000000 0.400000 0
8.100000 0.400000 0
8.200000 0.400000 0
8.300000 0.400000 0
8.400000 0.400000 0
8.500000 0.400000 0
8.600000 0.400000 0
[...]
POINT_DATA 2121 

VECTORS velocity float
0.500000 0.000000 0
-0.000005 0.000000 0
-0.000009 0.000000 0
-0.000016 0.000000 0
-0.000027 0.000000 0
-0.000052 0.000000 0
-0.000102 0.000000 0
-0.000189 0.000000 0
-0.000319 0.000000 0
-0.000499 0.000000 0
-0.000744 0.000000 0
-0.001057 0.000000 0
-0.001415 0.000000 0
-0.001749 0.000000 0
-0.001934 0.000000 0
-0.001799 0.000000 0
-0.001270 0.000000 0
-0.000379 0.000000 0
0.000699 0.000000 0
0.001767 0.000000 0
0.002787 0.000000 0
0.003678 0.000000 0
0.004109 0.000000 0
0.004330 0.000000 0
0.009297 0.000000 0
0.009733 0.000000 0
0.005087 0.000000 0
0.006336 0.000000 0
0.007620 0.000000 0
0.015257 0.000000 0
0.017377 0.000000 0
0.009230 0.000000 0
0.000749 0.000000 0
-0.007036 0.000000 0
-0.015761 0.000000 0
-0.024073 0.000000 0
-0.027093 0.000000 0
-0.021996 0.000000 0
-0.016604 0.000000 0
-0.018157 0.000000 0
-0.019609 0.000000 0
-0.019911 0.000000 0
-0.020786 0.000000 0
-0.020870 0.000000 0
-0.016845 0.000000 0
-0.009329 0.000000 0
-0.002045 0.000000 0
0.007447 0.000000 0
0.019123 0.000000 0
0.031743 0.000000 0
0.040069 0.000000 0
0.042425 0.000000 0
0.027463 0.000000 0
0.006465 0.000000 0
-0.001570 0.000000 0
-0.003617 0.000000 0
-0.004673 0.000000 0
-0.001607 0.000000 0
-0.000059 0.000000 0
-0.000370 0.000000 0
-0.000385 0.000000 0
-0.000345 0.000000 0
-0.000402 0.000000 0
-0.000524 0.000000 0
-0.000639 0.000000 0
-0.000721 0.000000 0
-0.000774 0.000000 0
-0.000811 0.000000 0
-0.000842 0.000000 0
-0.000872 0.000000 0
-0.000892 0.000000 0
-0.000895 0.000000 0
-0.000881 0.000000 0
-0.000859 0.000000 0
-0.000837 0.000000 0
-0.000817 0.000000 0
-0.000792 0.000000 0
-0.000752 0.000000 0
-0.000697 0.000000 0
-0.000642 0.000000 0
-0.000603 0.000000 0
-0.000585 0.000000 0
-0.000573 0.000000 0
-0.000548 0.000000 0
-0.000502 0.000000 0
-0.000442 0.000000 0
-0.000385 0.000000 0
-0.000347 0.000000 0
-0.000337 0.000000 0
-0.000357 0.000000 0
-0.000392 0.000000 0
-0.000423 0.000000 0
-0.000432 0.000000 0
-0.000411 0.000000 0
-0.000350 0.000000 0
-0.000308 0.000000 0
-0.000280 0.000000 0
-0.000262 0.000000 0
-0.000250 0.000000 0
-0.000244 0.000000 0
-0.000240 0.000000 0
1.000000 -0.002998 0
1.006591 -0.009439 0
1.020204 -0.016617 0
1.041438 -0.024227 0
1.070772 -0.031767 0
1.108023 -0.038312 0
1.151764 -0.042553 0
1.198976 -0.043022 0
1.243914 -0.039489 0
1.282462 -0.033598 0
1.313564 -0.027457 0
1.338413 -0.022527 0
1.359131 -0.019349 0
1.377938 -0.017592 0
1.396553 -0.015809 0
1.414190 -0.011575 0
1.426367 -0.002889 0
1.426832 0.010328 0
1.410723 0.025983 0
1.377482 0.041327 0
1.329243 0.054802 0
1.268948 0.065123 0
1.200273 0.069190 0
1.124615 0.079689 0
1.037339 0.117681 0
0.959793 0.135451 0
0.875487 0.114948 0
0.726909 0.085835 0
0.575620 0.096330 0
0.389788 0.197954 0
0.151989 0.239667 0
0.004719 0.132245 0
-0.026301 -0.001690 0
0.013357 -0.104722 0
0.107002 -0.190060 0
0.261549 -0.253317 0
0.478069 -0.263480 0
0.726713 -0.211466 0
0.958322 -0.166504 0
1.128888 -0.158243 0
1.280558 -0.152102 0
1.421269 -0.144475 0
1.548628 -0.137953 0
1.662523 -0.125867 0
1.759662 -0.094682 0
1.826004 -0.047332 0
1.845383 0.005854 0
1.808033 0.067615 0
1.702085 0.138288 0
1.536851 0.212785 0
1.346156 0.273933 0
1.171773 0.294573 0
1.050316 0.223999 0
0.993483 0.087241 0
0.968747 -0.001975 0
0.943201 -0.027207 0
0.905034 -0.033722 0
0.856103 -0.022953 0
0.825003 -0.007199 0
0.817373 -0.004162 0
0.819697 -0.004159 0
0.821706 -0.003547 0
0.823595 -0.003459 0
0.826925 -0.003997 0
0.831564 -0.004630 0
0.836833 -0.005066 0
0.842346 -0.005294 0
0.848052 -0.005413 0
0.853995 -0.005525 0
0.860122 -0.005657 0
0.866283 -0.005748 0
0.872375 -0.005725 0
0.878410 -0.005580 0
0.884468 -0.005371 0
0.890566 -0.005180 0
0.896545 -0.005028 0
0.902150 -0.004839 0
0.907197 -0.004521 0
0.911732 -0.004075 0
0.915979 -0.003619 0
0.920146 -0.003295 0
0.924248 -0.003152 0
0.928098 -0.003071 0
0.931460 -0.002876 0
0.934205 -0.002489 0
0.936375 -0.001974 0
0.938181 -0.001473 0
0.939854 -0.001126 0
0.941601 -0.001031 0
0.943509 -0.001190 0
0.945519 -0.001494 0
0.947572 -0.001770 0
0.949472 -0.001883 0
0.951029 -0.001693 0
0.952214 -0.001273 0
0.953122 -0.000876 0
0.953810 -0.000599 0
0.954332 -0.000410 0
0.954733 -0.000350 0
0.955071 -0.000433 0
0.955388 -0.000490 0
1.000000 -0.006578 0
1.006761 -0.020185 0
1.020573 -0.034834 0
1.042324 -0.050555 0
1.073285 -0.066573 0
1.114075 -0.080980 0
1.163807 -0.090941 0
1.220587 -0.092139 0
1.273017 -0.083476 0
1.314930 -0.069640 0
1.346257 -0.055941 0
1.369936 -0.045557 0
1.389303 -0.039516 0
1.407571 -0.037413 0
1.428947 -0.036243 0
1.454121 -0.029805 0
1.476258 -0.012633 0
1.485187 0.015652 0
1.471801 0.049358 0
1.437131 0.081488 0
1.386568 0.108541 0
1.324378 0.128977 0
1.252060 0.144340 0
1.166752 0.162940 0
1.084817 0.164828 0
1.023503 0.161858 0
0.908212 0.232889 0
0.735489 0.299872 0
0.575413 0.337126 0
0.417516 0.423636 0
0.294027 0.385073 0
0.282123 0.178293 0
0.315849 -0.008635 0
0.318603 -0.133300 0
0.307154 -0.248189 0
0.316171 -0.371064 0
0.365431 -0.465162 0
0.502053 -0.480251 0
0.729191 -0.402173 0
0.949630 -0.322235 0
1.109885 -0.292380 0
1.231338 -0.268070 0
1.335877 -0.241254 0
1.412485 -0.211034 0
1.467424 -0.163481 0
1.512043 -0.085721 0
1.532334 0.017971 0
1.505065 0.143298 0
1.434828 0.271182 0
1.341031 0.355928 0
1.248693 0.365078 0
1.165491 0.295839 0
1.122183 0.178289 0
1.105895 0.081568 0
1.089467 0.050280 0
1.070019 0.063712 0
1.035748 0.087098 0
0.990257 0.080030 0
0.957817 0.038729 0
0.924037 0.005304 0
0.891531 -0.004335 0
0.869040 -0.003900 0
0.858591 -0.005220 0
0.858733 -0.007971 0
0.863626 -0.009910 0
0.869709 -0.010784 0
0.875881 -0.011221 0
0.882061 -0.011651 0
0.888347 -0.012072 0
0.894806 -0.012291 0
0.901490 -0.012256 0
0.908431 -0.012130 0
0.915599 -0.012096 0
0.922846 -0.012159 0
0.929933 -0.012081 0
0.936631 -0.011589 0
0.942848 -0.010656 0
0.948674 -0.009586 0
0.954269 -0.008786 0
0.959727 -0.008418 0
0.964949 -0.008275 0
0.969711 -0.007957 0
0.973814 -0.007217 0
0.977242 -0.006113 0
0.980153 -0.004920 0
0.982815 -0.003982 0
0.985444 -0.003485 0
0.988160 -0.003426 0
0.990927 -0.003661 0
0.993634 -0.003924 0
0.996137 -0.004069 0
0.998235 -0.003959 0
0.999802 -0.003464 0
1.000955 -0.002749 0
1.001914 -0.002099 0
1.002764 -0.001603 0
1.003504 -0.001217 0
1.004119 -0.000930 0
1.004627 -0.000746 0
1.004965 -0.000662 0
1.005113 -0.000634 0
1.000000 -0.009749 0
1.005597 -0.029999 0
1.017758 -0.052175 0
1.037919 -0.076933 0
1.069265 -0.103512 0
1.113797 -0.128828 0
1.171650 -0.149060 0
1.249631 -0.152228 0
1.315515 -0.133827 0
1.360536 -0.106833 0
1.389004 -0.082459 0
1.408024 -0.065569 0
1.422342 -0.056979 0
1.435534 -0.057232 0
1.455816 -0.062356 0
1.488312 -0.058882 0
1.525765 -0.033951 0
1.550259 0.014789 0
1.543988 0.074043 0
1.506440 0.126562 0
1.445414 0.167559 0
1.373224 0.199635 0
1.298985 0.226818 0
1.227770 0.246934 0
1.162180 0.260933 0
1.065246 0.312059 0
0.928142 0.402965 0
0.838275 0.418637 0
0.795009 0.414304 0
0.629997 0.479341 0
0.548611 0.375062 0
0.587170 0.110425 0
0.549214 -0.038169 0
0.467874 -0.096026 0
0.458528 -0.187627 0
0.498209 -0.311593 0
0.514310 -0.449362 0
0.508551 -0.575225 0
0.563322 -0.614080 0
0.725425 -0.538936 0
0.897871 -0.433810 0
1.030893 -0.370467 0
1.122423 -0.319100 0
1.178871 -0.257414 0
1.200506 -0.194240 0
1.213796 -0.112243 0
1.222825 0.012832 0
1.198367 0.165121 0
1.158184 0.302321 0
1.112507 0.398920 0
1.054936 0.449472 0
1.016924 0.421082 0
1.000848 0.283594 0
0.980609 0.119956 0
0.943885 0.033900 0
0.919318 0.026512 0
0.916740 0.046040 0
0.929418 0.054978 0
0.927076 0.059021 0
0.904027 0.062123 0
0.874519 0.050837 0
0.852376 0.029392 0
0.844016 0.006847 0
0.850659 -0.009033 0
0.859077 -0.015606 0
0.865618 -0.017323 0
0.870939 -0.017647 0
0.876149 -0.017880 0
0.881880 -0.018271 0
0.888381 -0.018801 0
0.895677 -0.019375 0
0.903604 -0.019836 0
0.911816 -0.019996 0
0.919903 -0.019706 0
0.927549 -0.018967 0
0.934697 -0.017945 0
0.941500 -0.016883 0
0.948145 -0.015944 0
0.954612 -0.015131 0
0.960649 -0.014301 0
0.965977 -0.013281 0
0.970461 -0.012018 0
0.974235 -0.010604 0
0.977566 -0.009217 0
0.980766 -0.008064 0
0.984000 -0.007268 0
0.987301 -0.006820 0
0.990528 -0.006611 0
0.993560 -0.006507 0
0.996223 -0.006403 0
0.998377 -0.006098 0
0.999926 -0.005438 0
1.001102 -0.004606 0
1.002139 -0.003808 0
1.003113 -0.003084 0
1.003977 -0.002469 0
1.004725 -0.001956 0
1.005347 -0.001536 0
1.005838 -0.001199 0
1.006172 -0.000922 0
1.006314 -0.000781 0
1.000000 -0.012164 0
1.003122 -0.037929 0
1.012038 -0.067150 0
1.027493 -0.102055 0
1.057761 -0.142445 0
1.104879 -0.183360 0
1.171686 -0.226770 0
1.302355 -0.235998 0
1.386764 -0.194375 0
1.427178 -0.143124 0
1.443536 -0.103425 0
1.451732 -0.078891 0
1.455208 -0.067021 0
1.451582 -0.070883 0
1.458842 -0.089017 0
1.490605 -0.099751 0
1.545198 -0.074577 0
1.598799 -0.002568 0
1.610263 0.093180 0
1.585336 0.180066 0
1.528737 0.241761 0
1.445375 0.275409 0
1.345989 0.289797 0
1.249632 0.299748 0
1.165311 0.327355 0
1.086968 0.395898 0
1.034591 0.459863 0
1.029860 0.433008 0
0.967266 0.545407 0
0.795321 0.670036 0
0.750157 0.427902 0
0.655435 0.177691 0
0.456298 0.110661 0
0.354137 -0.042613 0
0.372324 -0.278522 0
0.449436 -0.426845 0
0.545037 -0.475503 0
0.590759 -0.529263 0
0.581508 -0.619047 0
0.599006 -0.656783 0
0.690348 -0.597848 0
0.801720 -0.492621 0
0.890110 -0.389231 0
0.962087 -0.289117 0
1.008711 -0.198407 0
1.016029 -0.108040 0
0.988323 0.033400 0
0.947971 0.207939 0
0.911817 0.357042 0
0.895276 0.459176 0
0.896178 0.460660 0
0.929098 0.349926 0
0.957100 0.214605 0
0.939058 0.138531 0
0.895979 0.111571 0
0.866977 0.090857 0
0.864654 0.076997 0
0.877786 0.069693 0
0.891408 0.064119 0
0.908306 0.057860 0
0.924919 0.047315 0
0.934430 0.026602 0
0.929709 -0.003504 0
0.908301 -0.023032 0
0.887731 -0.024869 0
0.874656 -0.022648 0
0.869131 -0.021754 0
0.869414 -0.022594 0
0.873769 -0.024305 0
0.880823 -0.026089 0
0.889496 -0.027481 0
0.898954 -0.028270 0
0.908555 -0.028396 0
0.917856 -0.027893 0
0.926647 -0.026877 0
0.934898 -0.025542 0
0.942681 -0.024105 0
0.949987 -0.022700 0
0.956731 -0.021293 0
0.962756 -0.019785 0
0.967926 -0.018089 0
0.972293 -0.016217 0
0.976048 -0.014324 0
0.979506 -0.012645 0
0.982905 -0.011357 0
0.986343 -0.010519 0
0.989804 -0.010015 0
0.993071 -0.009687 0
0.996014 -0.009358 0
0.998304 -0.008744 0
0.999963 -0.007775 0
1.001198 -0.006686 0
1.002261 -0.005679 0
1.003194 -0.004763 0
1.004030 -0.003940 0
1.004765 -0.003217 0
1.005394 -0.002589 0
1.005912 -0.002045 0
1.006311 -0.001574 0
1.006581 -0.001140 0
1.006700 -0.000911 0
1.000000 -0.012860 0
1.000036 -0.042022 0
1.007312 -0.076538 0
1.010199 -0.122650 0
1.036276 -0.180892 0
1.076374 -0.242747 0
1.153557 -0.346531 0
1.395702 -0.367301 0
1.468448 -0.258646 0
1.468819 -0.163600 0
1.448156 -0.107008 0
1.431686 -0.077237 0
1.418734 -0.056825 0
1.373056 -0.060862 0
1.337557 -0.101374 0
1.348186 -0.145234 0
1.391271 -0.142141 0
1.484400 -0.050272 0
1.522110 0.087510 0
1.533457 0.208092 0
1.533263 0.307523 0
1.496048 0.382386 0
1.423803 0.422564 0
1.324336 0.427615 0
1.213401 0.423600 0
1.117667 0.442782 0
1.070562 0.460076 0
1.052884 0.485964 0
0.960823 0.648845 0
0.963715 0.696451 0
0.976343 0.514950 0
0.794072 0.404285 0
0.639755 0.263130 0
0.610387 -0.012051 0
0.561793 -0.282925 0
0.466010 -0.484305 0
0.417516 -0.590684 0
0.465941 -0.611694 0
0.525646 -0.622326 0
0.552501 -0.647776 0
0.584015 -0.636524 0
0.632778 -0.570229 0
0.678040 -0.479467 0
0.712281 -0.376015 0
0.746342 -0.248182 0
0.760973 -0.091855 0
0.753395 0.080890 0
0.759713 0.241626 0
0.782562 0.355015 0
0.825147 0.414559 0
0.884977 0.415650 0
0.913224 0.360159 0
0.895154 0.273635 0
0.864646 0.181077 0
0.862507 0.105980 0
0.874934 0.057836 0
0.888756 0.035230 0
0.900991 0.028223 0
0.910241 0.028500 0
0.915864 0.028612 0
0.918703 0.024712 0
0.917094 0.024601 0
0.904675 0.032976 0
0.879284 0.032944 0
0.858066 0.018037 0
0.846788 0.001276 0
0.844497 -0.012405 0
0.848678 -0.022519 0
0.857098 -0.029681 0
0.868099 -0.034529 0
0.880413 -0.037508 0
0.893007 -0.038896 0
0.905130 -0.038900 0
0.916380 -0.037800 0
0.926717 -0.036011 0
0.936269 -0.033981 0
0.945130 -0.031974 0
0.953210 -0.029996 0
0.960248 -0.027901 0
0.966097 -0.025498 0
0.970835 -0.022820 0
0.974815 -0.020142 0
0.978534 -0.017820 0
0.982343 -0.016076 0
0.986276 -0.014903 0
0.990247 -0.014170 0
0.993858 -0.013550 0
0.996820 -0.012823 0
0.999027 -0.011743 0
1.000574 -0.010355 0
1.001742 -0.008995 0
1.002756 -0.007738 0
1.003646 -0.006604 0
1.004428 -0.005580 0
1.005115 -0.004658 0
1.005710 -0.003836 0
1.006212 -0.003106 0
1.006620 -0.002455 0
1.006930 -0.001871 0
1.007136 -0.001314 0
1.007228 -0.001016 0
1.000000 -0.012187 0
0.997817 -0.045225 0
1.001157 -0.077306 0
0.993711 -0.131012 0
1.010005 -0.208613 0
1.010607 -0.300635 0
1.108812 -0.546092 0
1.432180 -0.550884 0
1.353386 -0.267487 0
1.252641 -0.122828 0
1.197462 -0.066288 0
1.086358 -0.049464 0
1.079171 -0.008387 0
1.081289 0.010299 0
0.784565 -0.064142 0
0.785221 -0.153461 0
0.745625 -0.210786 0
0.958368 -0.133403 0
1.039066 0.044127 0
1.152921 0.168917 0
1.279299 0.279173 0
1.325444 0.384872 0
1.343855 0.461512 0
1.342643 0.510153 0
1.303757 0.534026 0
1.243068 0.538740 0
1.192809 0.524648 0
1.141706 0.542749 0
1.093060 0.634577 0
1.146798 0.654517 0
1.105646 0.597546 0
0.949670 0.514280 0
0.832637 0.294348 0
0.756438 0.035350 0
0.661204 -0.134145 0
0.536559 -0.282566 0
0.396957 -0.475433 0
0.330088 -0.637393 0
0.365582 -0.705606 0
0.430177 -0.715151 0
0.490385 -0.678125 0
0.546447 -0.586647 0
0.593263 -0.468734 0
0.612682 -0.357419 0
0.607907 -0.247099 0
0.600192 -0.115092 0
0.609882 0.034660 0
0.644614 0.178771 0
0.697125 0.291608 0
0.753241 0.356761 0
0.815534 0.372583 0
0.870766 0.339749 0
0.910379 0.263182 0
0.933189 0.171177 0
0.939549 0.101282 0
0.928042 0.064608 0
0.902494 0.050939 0
0.869789 0.048208 0
0.835761 0.049246 0
0.806301 0.049397 0
0.782000 0.046084 0
0.763856 0.040629 0
0.757653 0.034305 0
0.766888 0.023576 0
0.780079 0.007626 0
0.793882 -0.009080 0
0.808341 -0.023645 0
0.823791 -0.035196 0
0.840184 -0.043727 0
0.857071 -0.049405 0
0.873793 -0.052391 0
0.889729 -0.052989 0
0.904498 -0.051771 0
0.918035 -0.049482 0
0.930384 -0.046767 0
0.941450 -0.043957 0
0.950967 -0.041048 0
0.958812 -0.037820 0
0.965033 -0.034181 0
0.970056 -0.030374 0
0.974456 -0.026809 0
0.978752 -0.023918 0
0.983409 -0.021855 0
0.988179 -0.020389 0
0.992399 -0.019263 0
0.995961 -0.018104 0
0.998620 -0.016592 0
1.000509 -0.014858 0
1.001792 -0.013115 0
1.002840 -0.011462 0
1.003742 -0.009959 0
1.004536 -0.008593 0
1.005229 -0.007354 0
1.005830 -0.006234 0
1.006349 -0.005225 0
1.006791 -0.004318 0
1.007158 -0.003502 0
1.007452 -0.002765 0
1.007671 -0.002093 0
1.007813 -0.001442 0
1.007873 -0.001092 0
1.000000 -0.010663 0
0.999410 -0.043162 0
0.991563 -0.072425 0
0.977010 -0.131491 0
0.976741 -0.197781 0
0.920635 -0.341547 0
1.001700 -0.768097 0
0.704786 -0.532768 0
0.000537 0.000000 0
0.001146 0.000000 0
0.485177 0.066951 0
0.449159 0.041058 0
0.467498 -0.051752 0
0.249103 0.233748 0
0.228847 0.194698 0
0.143468 -0.106290 0
0.084271 -0.315284 0
0.044672 -0.343708 0
0.102080 -0.107039 0
0.320702 -0.032138 0
0.746176 0.135004 0
0.946785 0.317833 0
1.090074 0.405368 0
1.160092 0.467717 0
1.204152 0.523177 0
1.225610 0.553732 0
1.217549 0.561441 0
1.174415 0.585715 0
1.135668 0.643755 0
1.137202 0.683867 0
1.088654 0.712080 0
1.029069 0.677296 0
0.948983 0.456363 0
0.749477 0.159383 0
0.569430 -0.063044 0
0.497308 -0.220057 0
0.453095 -0.384213 0
0.391482 -0.580319 0
0.374125 -0.722414 0
0.403656 -0.772578 0
0.443181 -0.752794 0
0.482609 -0.673107 0
0.529520 -0.545702 0
0.571953 -0.390659 0
0.591087 -0.235692 0
0.592920 -0.093830 0
0.600427 0.036468 0
0.626879 0.154383 0
0.676743 0.246388 0
0.743657 0.296150 0
0.820373 0.298124 0
0.897282 0.265314 0
0.957880 0.211212 0
0.984491 0.151907 0
0.974237 0.111126 0
0.937262 0.094891 0
0.886631 0.093482 0
0.833766 0.094955 0
0.787313 0.091987 0
0.752655 0.082372 0
0.731066 0.067156 0
0.721746 0.048948 0
0.724205 0.029943 0
0.736959 0.010517 0
0.755190 -0.008957 0
0.775935 -0.026987 0
0.797643 -0.042315 0
0.819212 -0.054363 0
0.839806 -0.062962 0
0.859206 -0.068139 0
0.877741 -0.070168 0
0.895780 -0.069604 0
0.913152 -0.067207 0
0.928975 -0.063687 0
0.942124 -0.059427 0
0.952198 -0.054565 0
0.959715 -0.049337 0
0.965809 -0.044064 0
0.971443 -0.039147 0
0.977264 -0.034923 0
0.982767 -0.031519 0
0.987773 -0.029097 0
0.992460 -0.027249 0
0.996392 -0.025069 0
0.999276 -0.022687 0
1.001285 -0.020394 0
1.002672 -0.018101 0
1.003734 -0.015996 0
1.004597 -0.014076 0
1.005342 -0.012308 0
1.005979 -0.010694 0
1.006521 -0.009228 0
1.006980 -0.007900 0
1.007370 -0.006702 0
1.007699 -0.005622 0
1.007973 -0.004649 0
1.008196 -0.003770 0
1.008369 -0.002970 0
1.008494 -0.002235 0
1.008570 -0.001520 0
1.008596 -0.001135 0
1.000000 -0.011583 0
1.003000 -0.036771 0
0.978169 -0.054899 0
0.975318 -0.116182 0
0.908764 -0.152230 0
0.880526 -0.325586 0
0.693742 -0.409338 0
0.000000 0.000916 0
-0.599795 0.150428 0
-0.515256 0.000000 0
0.000000 0.000000 0
0.058322 -0.040410 0
0.040958 0.191674 0
-0.143130 0.248954 0
0.207677 0.041497 0
-0.271821 -0.008880 0
-0.524429 -0.111986 0
-0.663598 -0.151208 0
-0.625577 -0.231899 0
-0.494862 -0.475175 0
0.085126 -0.346907 0
0.449197 0.040978 0
0.773527 0.248209 0
0.969960 0.396079 0
1.073642 0.468511 0
1.133995 0.525345 0
1.175820 0.575846 0
1.189556 0.624634 0
1.202164 0.671792 0
1.224450 0.701532 0
1.228147 0.705682 0
1.235830 0.653953 0
1.195960 0.573941 0
1.049105 0.414905 0
0.905661 0.118026 0
0.797209 -0.166231 0
0.715160 -0.369606 0
0.652365 -0.558422 0
0.590600 -0.717780 0
0.561079 -0.784208 0
0.559940 -0.757077 0
0.561530 -0.672985 0
0.556870 -0.558078 0
0.550080 -0.418986 0
0.549127 -0.268067 0
0.559592 -0.124432 0
0.586659 0.000701 0
0.634508 0.102455 0
0.701742 0.174829 0
0.778872 0.213131 0
0.853033 0.218958 0
0.912138 0.202241 0
0.950369 0.175973 0
0.955457 0.154820 0
0.927052 0.148510 0
0.877951 0.152214 0
0.823799 0.154434 0
0.776094 0.147525 0
0.740321 0.130356 0
0.717681 0.105643 0
0.707387 0.076992 0
0.708062 0.047489 0
0.718293 0.019091 0
0.736244 -0.007410 0
0.759128 -0.031351 0
0.784559 -0.051533 0
0.810723 -0.066923 0
0.836381 -0.077360 0
0.860512 -0.083723 0
0.882561 -0.087341 0
0.902357 -0.088966 0
0.920325 -0.088401 0
0.936676 -0.084968 0
0.950999 -0.078456 0
0.961900 -0.069991 0
0.969337 -0.061550 0
0.974910 -0.054661 0
0.980651 -0.049550 0
0.986374 -0.045638 0
0.991482 -0.041700 0
0.995768 -0.037320 0
0.999252 -0.033613 0
1.001772 -0.030476 0
1.003460 -0.027208 0
1.004782 -0.024159 0
1.005731 -0.021502 0
1.006509 -0.019043 0
1.007151 -0.016786 0
1.007656 -0.014726 0
1.008055 -0.012846 0
1.008370 -0.011140 0
1.008619 -0.009597 0
1.008815 -0.008206 0
1.008971 -0.006955 0
1.009095 -0.005831 0
1.009192 -0.004818 0
1.009267 -0.003901 0
1.009319 -0.003066 0
1.009350 -0.002296 0
1.009360 -0.001546 0
1.009350 -0.001143 0
1.000000 -0.013648 0
0.990011 -0.021312 0
0.967852 -0.044735 0
0.960955 -0.062077 0
0.871704 -0.102980 0
0.841999 -0.126517 0
0.503957 0.036586 0
0.381011 0.085128 0
0.000000 0.000000 0
0.000000 0.000000 0
0.000000 0.000000 0
0.000000 0.000000 0
-0.031883 0.158231 0
0.181117 0.067034 0
-0.309268 0.323394 0
-0.575289 0.625822 0
-0.759342 0.076498 0
-0.749674 -0.242556 0
-0.844634 -0.275771 0
-0.531489 -0.742837 0
-0.440903 -0.809051 0
-0.006925 -0.370565 0
0.426682 -0.115392 0
0.758025 0.167605 0
0.958057 0.359146 0
1.058080 0.451558 0
1.133568 0.505883 0
1.197400 0.559374 0
1.248398 0.608863 0
1.278351 0.657886 0
1.278247 0.700702 0
1.258000 0.709485 0
1.220108 0.643089 0
1.235012 0.449683 0
1.244123 0.188853 0
1.200404 -0.029555 0
1.148766 -0.239368 0
1.096725 -0.455758 0
1.011964 -0.631128 0
0.902317 -0.741919 0
0.794837 -0.753245 0
0.728963 -0.670036 0
0.706891 -0.534252 0
0.702845 -0.382916 0
0.706692 -0.245205 0
0.715802 -0.131362 0
0.731577 -0.038447 0
0.757401 0.039299 0
0.793693 0.102024 0
0.835350 0.144859 0
0.874325 0.164857 0
0.902181 0.167978 0
0.911066 0.167893 0
0.895001 0.175224 0
0.859719 0.188631 0