# vtk DataFile Version 2.0
generated by CFD-lab course output (written by Tobias Neckel) 
ASCII

DATASET STRUCTURED_GRID
DIMENSIONS  101 21 1 
POINTS 2121 float

0.000000 0.000000 0
0.100000 0.000000 0
0.200000 0.000000 0
0.300000 0.000000 0
0.400000 0.000000 0
0.500000 0.000000 0
0.600000 0.000000 0
0.700000 0.000000 0
0.800000 0.000000 0
0.900000 0.000000 0
1.000000 0.000000 0
1.100000 0.000000 0
1.200000 0.000000 0
1.300000 0.000000 0
1.400000 0.000000 0
1.500000 0.000000 0
1.600000 0.000000 0
1.700000 0.000000 0
1.800000 0.000000 0
1.900000 0.000000 0
2.000000 0.000000 0
2.100000 0.000000 0
2.200000 0.000000 0
2.300000 0.000000 0
2.400000 0.000000 0
2.500000 0.000000 0
2.600000 0.000000 0
2.700000 0.000000 0
2.800000 0.000000 0
2.900000 0.000000 0
3.000000 0.000000 0
3.100000 0.000000 0
3.200000 0.000000 0
3.300000 0.000000 0
3.400000 0.000000 0
3.500000 0.000000 0
3.600000 0.000000 0
3.700000 0.000000 0
3.800000 0.000000 0
3.900000 0.000000 0
4.000000 0.000000 0
4.100000 0.000000 0
4.200000 0.000000 0
4.300000 0.000000 0
4.400000 0.000000 0
4.500000 0.000000 0
4.600000 0.000000 0
4.700000 0.000000 0
4.800000 0.000000 0
4.900000 0.000000 0
5.000000 0.000000 0
5.100000 0.000000 0
5.200000 0.000000 0
5.300000 0.000000 0
5.400000 0.000000 0
5.500000 0.000000 0
5.600000 0.000000 0
5.700000 0.000000 0
5.800000 0.000000 0
5.900000 0.000000 0
6.000000 0.000000 0
6.100000 0.000000 0
6.200000 0.000000 0
6.300000 0.000000 0
6.400000 0.000000 0
6.500000 0.000000 0
6.600000 0.000000 0
6.700000 0.000000 0
6.800000 0.000000 0
6.900000 0.000000 0
7.000000 0.000000 0
7.100000 0.000000 0
7.200000 0.000000 0
7.300000 0.000000 0
7.400000 0.000000 0
7.500000 0.000000 0
7.600000 0.000000 0
7.700000 0.000000 0
7.800000 0.000000 0
7.900000 0.000000 0
8.000000 0.000000 0
8.100000 0.000000 0
8.200000 0.000000 0
8.300000 0.000000 0
8.400000 0.000000 0
8.500000 0.000000 0
8.600000 0.000000 0
8.700000 0.000000 0
8.800000 0.000000 0
8.900000 0.000000 0
9.000000 0.000000 0
9.100000 0.000000 0
9.200000 0.000000 0
9.300000 0.000000 0
9.400000 0.000000 0
9.500000 0.000000 0
9.600000 0.000000 0
9.700000 0.000000 0
9.800000 0.000000 0
9.900000 0.000000 0
10.000000 0.000000 0
0.000000 0.100000 0
0.100000 0.100000 0
0.200000 0.100000 0
0.300000 0.100000 0
0.400000 0.100000 0
0.500000 0.100000 0
0.600000 0.100000 0
0.700000 0.100000 0
0.800000 0.100000 0
0.900000 0.100000 0
1.000000 0.100000 0
1.100000 0.100000 0
1.200000 0.100000 0
1.300000 0.100000 0
1.400000 0.100000 0
1.500000 0.100000 0
1.600000 0.100000 0
1.700000 0.100000 0
1.800000 0.100000 0
1.900000 0.100000 0
2.000000 0.100000 0
2.100000 0.100000 0
2.200000 0.100000 0
2.300000 0.100000 0
2.400000 0.100000 0
2.500000 0.100000 0
2.600000 0.100000 0
2.700000 0.100000 0
2.800000 0.100000 0
2.900000 0.100000 0
3.000000 0.100000 0
3.100000 0.100000 0
3.200000 0.100000 0
3.300000 0.100000 0
3.400000 0.100000 0
3.500000 0.100000 0
3.600000 0.100000 0
3.700000 0.100000 0
3.800000 0.100000 0
3.900000 0.100000 0
4.000000 0.100000 0
4.100000 0.100000 0
4.200000 0.100000 0
4.300000 0.100000 0
4.400000 0.100000 0
4.500000 0.100000 0
4.600000 0.100000 0
4.700000 0.100000 0
4.800000 0.100000 0
4.900000 0.100000 0
5.000000 0.100000 0
5.100000 0.100000 0
5.200000 0.100000 0
5.300000 0.100000 0
5.400000 0.100000 0
5.500000 0.100000 0
5.600000 0.100000 0
5.700000 0.100000 0
5.800000 0.100000 0
5.900000 0.100000 0
6.000000 0.100000 0
6.100000 0.100000 0
6.200000 0.100000 0
6.300000 0.100000 0
6.400000 0.100000 0
6.500000 0.100000 0
6.600000 0.100000 0
6.700000 0.100000 0
6.800000 0.100000 0
6.900000 0.100000 0
7.000000 0.100000 0
7.100000 0.100000 0
7.200000 0.100000 0
7.300000 0.100000 0
7.400000 0.100000 0
7.500000 0.100000 0
7.600000 0.100000 0
7.700000 0.100000 0
7.800000 0.100000 0
7.900000 0.100000 0
8.000000 0.100000 0
8.100000 0.100000 0
8.200000 0.100000 0
8.300000 0.100000 0
8.400000 0.100000 0
8.500000 0.100000 0
8.600000 0.100000 0
8.700000 0.100000 0
8.800000 0.100000 0
8.900000 0.100000 0
9.000000 0.100000 0
9.100000 0.100000 0
9.200000 0.100000 0
9.300000 0.100000 0
9.400000 0.100000 0
9.500000 0.100000 0
9.600000 0.100000 0
9.700000 0.100000 0
9.800000 0.100000 0
9.900000 0.100000 0
10.000000 0.100000 0
0.000000 0.200000 0
0.100000 0.200000 0
0.200000 0.200000 0
0.300000 0.200000 0
0.400000 0.200000 0
0.500000 0.200000 0
0.600000 0.200000 0
0.700000 0.200000 0
0.800000 0.200000 0
0.900000 0.200000 0
1.000000 0.200000 0
1.100000 0.200000 0
1.200000 0.200000 0
1.300000 0.200000 0
1.400000 0.200000 0
1.500000 0.200000 0
1.600000 0.200000 0
1.700000 0.200000 0
1.800000 0.200000 0
1.900000 0.200000 0
2.000000 0.200000 0
2.100000 0.200000 0
2.200000 0.200000 0
2.300000 0.200000 0
2.400000 0.200000 0
2.500000 0.200000 0
2.600000 0.200000 0
2.700000 0.200000 0
2.800000 0.200000 0
2.900000 0.200000 0
3.000000 0.200000 0
3.100000 0.200000 0
3.200000 0.200000 0
3.300000 0.200000 0
3.400000 0.200000 0
3.500000 0.200000 0
3.600000 0.200000 0
3.700000 0.200000 0
3.800000 0.200000 0
3.900000 0.200000 0
4.000000 0.200000 0
4.100000 0.200000 0
4.200000 0.200000 0
4.300000 0.200000 0
4.400000 0.200000 0
4.500000 0.200000 0
4.600000 0.200000 0
4.700000 0.200000 0
4.800000 0.200000 0
4.900000 0.200000 0
5.000000 0.200000 0
5.100000 0.200000 0
5.200000 0.200000 0
5.300000 0.200000 0
5.400000 0.200000 0
5.500000 0.200000 0
5.600000 0.200000 0
5.700000 0.200000 0
5.800000 0.200000 0
5.900000 0.200000 0
6.000000 0.200000 0
6.100000 0.200000 0
6.200000 0.200000 0
6.300000 0.200000 0
6.400000 0.200000 0
6.500000 0.200000 0
6.600000 0.200000 0
6.700000 0.200000 0
6.800000 0.200000 0
6.900000 0.200000 0
7.000000 0.200000 0
7.100000 0.200000 0
7.200000 0.200000 0
7.300000 0.200000 0
7.400000 0.200000 0
7.500000 0.200000 0
7.600000 0.200000 0
7.700000 0.200000 0
7.800000 0.200000 0
7.900000 0.200000 0
8.000000 0.200000 0
8.100000 0.200000 0
8.200000 0.200000 0
8.300000 0.200000 0
8.400000 0.200000 0
8.500000 0.200000 0
8.600000 0.200000 0
8.700000 0.200000 0
8.800000 0.200000 0
8.900000 0.200000 0
9.000000 0.200000 0
9.100000 0.200000 0
9.200000 0.200000 0
9.300000 0.200000 0
9.400000 0.200000 0
9.500000 0.200000 0
9.600000 0.200000 0
9.700000 0.200000 0
9.800000 0.200000 0
9.900000 0.200000 0
10.000000 0.200000 0
0.000000 0.300000 0
0.100000 0.300000 0
0.200000 0.300000 0
0.300000 0.300000 0
0.400000 0.300000 0
0.500000 0.300000 0
0.600000 0.300000 0
0.700000 0.300000 0
0.800000 0.300000 0
0.900000 0.300000 0
1.000000 0.300000 0
1.100000 0.300000 0
1.200000 0.300000 0
1.300000 0.300000 0
1.400000 0.300000 0
1.500000 0.300000 0
1.600000 0.300000 0
1.700000 0.300000 0
1.800000 0.300000 0
1.900000 0.300000 0
2.000000 0.300000 0
2.100000 0.300000 0
2.200000 0.300000 0
2.300000 0.300000 0
2.400000 0.300000 0
2.500000 0.300000 0
2.600000 0.300000 0
2.700000 0.300000 0
2.800000 0.300000 0
2.900000 0.300000 0
3.000000 0.300000 0
3.100000 0.300000 0
3.200000 0.300000 0
3.300000 0.300000 0
3.400000 0.300000 0
3.500000 0.300000 0
3.600000 0.300000 0
3.700000 0.300000 0
3.800000 0.300000 0
3.900000 0.300000 0
4.000000 0.300000 0
4.100000 0.300000 0
4.200000 0.300000 0
4.300000 0.300000 0
4.400000 0.300000 0
4.500000 0.300000 0
4.600000 0.300000 0
4.700000 0.300000 0
4.800000 0.300000 0
4.900000 0.300000 0
5.000000 0.300000 0
5.100000 0.300000 0
5.200000 0.300000 0
5.300000 0.300000 0
5.400000 0.300000 0
5.500000 0.300000 0
5.600000 0.300000 0
5.700000 0.300000 0
5.800000 0.300000 0
5.900000 0.300000 0
6.000000 0.300000 0
6.100000 0.300000 0
6.200000 0.300000 0
6.300000 0.300000 0
6.400000 0.300000 0
6.500000 0.300000 0
6.600000 0.300000 0
6.700000 0.300000 0
6.800000 0.300000 0
6.900000 0.300000 0
7.000000 0.300000 0
7.100000 0.300000 0
7.200000 0.300000 0
7.300000 0.300000 0
7.400000 0.300000 0
7.500000 0.300000 0
7.600000 0.300000 0
7.700000 0.300000 0
7.800000 0.300000 0
7.900000 0.300000 0
8.000000 0.300000 0
8.100000 0.300000 0
8.200000 0.300000 0
8.300000 0.300000 0
8.400000 0.300000 0
8.500000 0.300000 0
8.600000 0.300000 0
8.700000 0.300000 0
8.800000 0.300000 0
8.900000 0.300000 0
9.000000 0.300000 0
9.100000 0.300000 0
9.200000 0.300000 0
9.300000 0.300000 0
9.400000 0.300000 0
9.500000 0.300000 0
9.600000 0.300000 0
9.700000 0.300000 0
9.800000 0.300000 0
9.900000 0.300000 0
10.000000 0.300000 0
0.000000 0.400000 0
0.100000 0.400000 0
0.200000 0.400000 0
0.300000 0.400000 0
0.400000 0.400000 0
0.500000 0.400000 0
0.600000 0.400000 0
0.700000 0.400000 0
0.800000 0.400000 0
0.900000 0.400000 0
1.000000 0.400000 0
1.100000 0.400000 0
1.200000 0.400000 0
1.300000 0.400000 0
1.400000 0.400000 0
1.500000 0.400000 0
1.600000 0.400000 0
1.700000 0.400000 0
1.800000 0.400000 0
1.900000 0.400000 0
2.000000 0.400000 0
2.100000 0.400000 0
2.200000 0.400000 0
2.300000 0.400000 0
2.400000 0.400000 0
2.500000 0.400000 0
2.600000 0.400000 0
2.700000 0.400000 0
2.800000 0.400000 0
2.900000 0.400000 0
3.000000 0.400000 0
3.100000 0.400000 0
3.200000 0.400000 0
3.300000 0.400000 0
3.400000 0.400000 0
3.500000 0.400000 0
3.600000 0.400000 0
3.700000 0.400000 0
3.800000 0.400000 0
3.900000 0.400000 0
4.000000 0.400000 0
4.100000 0.400000 0
4.200000 0.400000 0
4.300000 0.400000 0
4.400000 0.400000 0
4.500000 0.400000 0
4.600000 0.400000 0
4.700000 0.400000 0
4.800000 0.400000 0
4.900000 0.400000 0
5.000000 0.400000 0
5.100000 0.400000 0
5.200000 0.400000 0
5.300000 0.400000 0
5.400000 0.400000 0
5.500000 0.400000 0
5.600000 0.400000 0
5.700000 0.400000 0
5.800000 0.400000 0
5.900000 0.400000 0
6.000000 0.400000 0
6.100000 0.400000 0
6.200000 0.400000 0
6.300000 0.400000 0
6.400000 0.400000 0
6.500000 0.400000 0
6.600000 0.400000 0
6.700000 0.400000 0
6.800000 0.400000 0
6.900000 0.400000 0
7.000000 0.400000 0
7.100000 0.400000 0
7.200000 0.400000 0
7.300000 0.400000 0
7.400000 0.400000 0
7.500000 0.400000 0
7.600000 0.400000 0
7.700000 0.400000 0
7.800000 0.400000 0
7.900000 0.400000 0
8.000000 0.400000 0
8.100000 0.400000 0
8.200000 0.400000 0
8.300000 0.400000 0
8.400000 0.400000 0
8.500000 0.400000 0
8.600000 0.400000 0
[...]
POINT_DATA 2121 

VECTORS velocity float
0.500000 0.000000 0
-0.000048 0.000000 0
-0.000148 0.000000 0
-0.000288 0.000000 0
-0.000444 0.000000 0
-0.000600 0.000000 0
-0.000736 0.000000 0
-0.000820 0.000000 0
-0.000819 0.000000 0
-0.000717 0.000000 0
-0.000456 0.000000 0
0.000003 0.000000 0
0.000662 0.000000 0
0.001462 0.000000 0
0.002283 0.000000 0
0.003085 0.000000 0
0.003831 0.000000 0
0.004516 0.000000 0
0.005083 0.000000 0
0.007044 0.000000 0
0.005744 0.000000 0
0.007167 0.000000 0
0.006049 0.000000 0
0.001313 0.000000 0
-0.004492 0.000000 0
-0.012532 0.000000 0
-0.027486 0.000000 0
-0.039296 0.000000 0
-0.032681 0.000000 0
-0.035620 0.000000 0
-0.026032 0.000000 0
-0.013696 0.000000 0
-0.000637 0.000000 0
0.010611 0.000000 0
0.017663 0.000000 0
0.020252 0.000000 0
0.019768 0.000000 0
0.017931 0.000000 0
0.015190 0.000000 0
0.012328 0.000000 0
0.009552 0.000000 0
0.006870 0.000000 0
0.004307 0.000000 0
0.001999 0.000000 0
0.000235 0.000000 0
-0.000611 0.000000 0
-0.000392 0.000000 0
0.000544 0.000000 0
0.001158 0.000000 0
0.001905 0.000000 0
0.014158 0.000000 0
0.018832 0.000000 0
0.004355 0.000000 0
-0.000340 0.000000 0
-0.005831 0.000000 0
-0.004144 0.000000 0
-0.003612 0.000000 0
-0.003807 0.000000 0
0.000370 0.000000 0
0.007282 0.000000 0
0.010441 0.000000 0
0.008260 0.000000 0
0.004423 0.000000 0
0.000764 0.000000 0
-0.001813 0.000000 0
-0.002489 0.000000 0
-0.001284 0.000000 0
0.001054 0.000000 0
0.003674 0.000000 0
0.005454 0.000000 0
0.005379 0.000000 0
0.003566 0.000000 0
0.001013 0.000000 0
-0.001445 0.000000 0
-0.003442 0.000000 0
-0.005075 0.000000 0
-0.006526 0.000000 0
-0.007933 0.000000 0
-0.009438 0.000000 0
-0.010807 0.000000 0
-0.011908 0.000000 0
-0.012237 0.000000 0
-0.011169 0.000000 0
-0.008773 0.000000 0
-0.006562 0.000000 0
-0.007758 0.000000 0
-0.008040 0.000000 0
-0.007556 0.000000 0
-0.006689 0.000000 0
-0.005107 0.000000 0
-0.002734 0.000000 0
0.000060 0.000000 0
0.002954 0.000000 0
0.006220 0.000000 0
0.010644 0.000000 0
0.017710 0.000000 0
0.018768 0.000000 0
0.008629 0.000000 0
0.002673 0.000000 0
0.001165 0.000000 0
0.000942 0.000000 0
1.000000 -0.003677 0
1.007924 -0.011687 0
1.024679 -0.020834 0
1.051304 -0.030705 0
1.088506 -0.040568 0
1.136044 -0.049175 0
1.192049 -0.054859 0
1.252972 -0.055510 0
1.310981 -0.050323 0
1.360136 -0.040564 0
1.396789 -0.027926 0
1.419431 -0.013534 0
1.426850 0.002210 0
1.417573 0.018832 0
1.390952 0.035370 0
1.347957 0.050851 0
1.290155 0.064720 0
1.219597 0.075639 0
1.138796 0.085420 0
1.051459 0.103582 0
0.956347 0.118439 0
0.802786 0.127613 0
0.659299 0.123914 0
0.564444 0.087744 0
0.497381 0.040290 0
0.422834 -0.019767 0
0.368964 -0.142264 0
0.503123 -0.269802 0
0.854980 -0.309854 0
1.207834 -0.286452 0
1.470079 -0.228650 0
1.675752 -0.145569 0
1.802952 -0.055887 0
1.858653 0.024264 0
1.843130 0.083107 0
1.770954 0.115064 0
1.666761 0.124799 0
1.553105 0.120710 0
1.442732 0.108566 0
1.343584 0.091991 0
1.260724 0.073482 0
1.197307 0.053967 0
1.154395 0.034388 0
1.131241 0.016590 0
1.125225 0.003510 0
1.130096 -0.001712 0
1.135523 0.002035 0
1.131441 0.010689 0
1.112018 0.015119 0
1.073831 0.040754 0
1.005155 0.156693 0
0.902396 0.204469 0
0.782766 0.091701 0
0.629395 -0.014130 0
0.620982 -0.058876 0
0.694125 -0.055652 0
0.746559 -0.045215 0
0.749311 -0.042597 0
0.694841 -0.002078 0
0.605175 0.071389 0
0.510610 0.113500 0
0.434218 0.097802 0
0.381382 0.051863 0
0.359163 0.003422 0
0.374529 -0.032692 0
0.415399 -0.045572 0
0.453208 -0.032272 0
0.462603 -0.001196 0
0.433277 0.035387 0
0.373779 0.063608 0
0.305428 0.069845 0
0.252996 0.053340 0
0.228125 0.024812 0
0.230209 -0.004051 0
0.253207 -0.026145 0
0.289188 -0.042615 0
0.334034 -0.055335 0
0.385033 -0.065112 0
0.443023 -0.074568 0
0.508251 -0.083188 0
0.581542 -0.089691 0
0.663326 -0.091426 0
0.751832 -0.082857 0
0.841632 -0.065824 0
0.927986 -0.053373 0
1.004490 -0.055096 0
1.066313 -0.058640 0
1.121229 -0.054754 0
1.171099 -0.047857 0
1.216140 -0.036325 0
1.247784 -0.018852 0
1.260750 0.001950 0
1.253864 0.023811 0
1.227644 0.047823 0
1.181131 0.079098 0
1.116446 0.123142 0
1.042777 0.130445 0
0.982857 0.072885 0
0.944681 0.014141 0
0.919661 -0.001568 0
0.910028 0.002108 0
1.000000 -0.007921 0
1.008037 -0.024674 0
1.025006 -0.043377 0
1.052474 -0.063825 0
1.092001 -0.084739 0
1.144180 -0.103543 0
1.207531 -0.116930 0
1.281149 -0.118934 0
1.349496 -0.107167 0
1.405211 -0.085812 0
1.445183 -0.059300 0
1.470293 -0.030066 0
1.480311 0.001854 0
1.472342 0.035894 0
1.444552 0.069612 0
1.399496 0.100793 0
1.338975 0.128356 0
1.266016 0.151356 0
1.181868 0.168135 0
1.087483 0.182446 0
0.971923 0.248669 0
0.904753 0.297045 0
0.875930 0.238339 0
0.708109 0.161914 0
0.547083 0.141607 0
0.306296 0.128413 0
0.114079 -0.080294 0
0.122840 -0.486022 0
0.371618 -0.704718 0
0.768040 -0.615106 0
1.087628 -0.467926 0
1.298246 -0.332881 0
1.454194 -0.182909 0
1.584794 -0.040187 0
1.665229 0.087690 0
1.684960 0.176360 0
1.646632 0.217840 0
1.571133 0.224020 0
1.481875 0.209511 0
1.396795 0.182000 0
1.325567 0.146270 0
1.269934 0.106321 0
1.228945 0.066059 0
1.203917 0.029163 0
1.198633 0.001138 0
1.210876 -0.010303 0
1.226145 -0.001351 0
1.228792 0.023500 0
1.210765 0.057606 0
1.163786 0.106859 0
1.111487 0.171432 0
1.123740 0.222387 0
1.067020 0.272999 0
0.945824 0.161783 0
0.781482 -0.064730 0
0.637758 -0.125577 0
0.622594 -0.055185 0
0.633907 0.051719 0
0.587206 0.144139 0
0.501762 0.184234 0
0.426649 0.170960 0
0.365893 0.129231 0
0.318536 0.075058 0
0.293609 0.006857 0
0.294685 -0.056231 0
0.314050 -0.078674 0
0.329410 -0.047197 0
0.322432 0.019938 0
0.290667 0.088829 0
0.244006 0.127855 0
0.203025 0.120790 0
0.185153 0.077310 0
0.193078 0.022794 0
0.221578 -0.025075 0
0.262155 -0.058973 0
0.306153 -0.080821 0
0.345554 -0.095839 0
0.379385 -0.108983 0
0.409615 -0.123214 0
0.439472 -0.138515 0
0.473528 -0.155070 0
0.514945 -0.170286 0
0.569031 -0.178302 0
0.642159 -0.176151 0
0.732737 -0.162856 0
0.828039 -0.138324 0
0.911779 -0.116737 0
0.985745 -0.104784 0
1.046740 -0.094910 0
1.091432 -0.076684 0
1.123180 -0.044609 0
1.138709 -0.006080 0
1.139749 0.033105 0
1.132377 0.072732 0
1.117018 0.111198 0
1.107612 0.138353 0
1.119686 0.133588 0
1.121438 0.098095 0
1.100627 0.063195 0
1.080577 0.034653 0
1.073321 0.019037 0
1.000000 -0.011710 0
1.006653 -0.036688 0
1.021833 -0.065270 0
1.048262 -0.097698 0
1.089454 -0.132272 0
1.147074 -0.164705 0
1.220086 -0.191827 0
1.321571 -0.197475 0
1.407823 -0.174387 0
1.467554 -0.136252 0
1.508262 -0.093009 0
1.533976 -0.048663 0
1.546530 0.000159 0
1.542949 0.054590 0
1.516371 0.108214 0
1.464575 0.156426 0
1.396500 0.198199 0
1.319906 0.232746 0
1.236989 0.263952 0
1.140053 0.313526 0
1.051728 0.301168 0
1.019766 0.223603 0
0.787880 0.320556 0
0.571885 0.416589 0
0.469126 0.442101 0
0.242682 0.413234 0
0.208644 0.041189 0
0.241294 -0.527344 0
0.221032 -0.955058 0
0.353403 -1.002466 0
0.638691 -0.758860 0
0.881750 -0.512140 0
1.071677 -0.342439 0
1.207346 -0.186775 0
1.322291 -0.017063 0
1.423228 0.133657 0
1.477624 0.238622 0
1.480189 0.285463 0
1.444504 0.282900 0
1.388259 0.248296 0
1.323024 0.200339 0
1.258694 0.150585 0
1.205680 0.100402 0
1.173722 0.046899 0
1.174819 -0.003452 0
1.210046 -0.029226 0
1.253352 -0.015883 0
1.270403 0.026067 0
1.241059 0.080123 0
1.172734 0.140030 0
1.098463 0.196738 0
1.042787 0.248935 0
1.017833 0.269617 0
1.045788 0.271408 0
0.940217 0.249190 0
0.760063 0.103237 0
0.619489 -0.041363 0
0.559406 -0.007208 0
0.516127 0.130068 0
0.455227 0.231947 0
0.404122 0.249371 0
0.383286 0.205916 0
0.401207 0.124150 0
0.439498 0.027276 0
0.453715 -0.053131 0
0.429694 -0.080295 0
0.392513 -0.040651 0
0.366711 0.037550 0
0.343763 0.113815 0
0.307688 0.151253 0
0.281422 0.128702 0
0.278904 0.063290 0
0.299908 -0.011610 0
0.340771 -0.073125 0
0.394919 -0.110718 0
0.458042 -0.126011 0
0.520640 -0.128565 0
0.575342 -0.129171 0
0.613876 -0.134653 0
0.632776 -0.147100 0
0.633684 -0.165162 0
0.623649 -0.186927 0
0.613640 -0.210071 0
0.615431 -0.229529 0
0.635985 -0.239252 0
0.679781 -0.234137 0
0.745583 -0.216345 0
0.815892 -0.189714 0
0.878818 -0.153544 0
0.925929 -0.112764 0
0.961058 -0.066128 0
0.986224 -0.014618 0
1.002830 0.030143 0
1.015413 0.070554 0
1.031406 0.103864 0
1.057366 0.120475 0
1.092192 0.116619 0
1.113427 0.091944 0
1.112979 0.055003 0
1.104125 0.025739 0
1.098122 0.015877 0
1.000000 -0.014568 0
1.003483 -0.046501 0
1.014680 -0.084984 0
1.037086 -0.131443 0
1.079476 -0.183549 0
1.141117 -0.234175 0
1.224382 -0.291427 0
1.388642 -0.306672 0
1.493049 -0.253150 0
1.545737 -0.186252 0
1.578626 -0.125724 0
1.600127 -0.068336 0
1.616978 -0.007120 0
1.627396 0.066053 0
1.613412 0.147985 0
1.559800 0.220663 0
1.472318 0.273024 0
1.368532 0.310866 0
1.263012 0.347986 0
1.172057 0.367706 0
1.128177 0.368955 0
0.947133 0.560891 0
0.627564 0.686218 0
0.575801 0.480666 0
0.517226 0.470806 0
0.461358 0.388892 0
0.590230 -0.078909 0
0.617378 -0.498414 0
0.476063 -0.816831 0
0.336163 -1.032769 0
0.371627 -0.996278 0
0.553358 -0.765871 0
0.756714 -0.508509 0
0.915028 -0.290805 0
1.038995 -0.128196 0
1.134019 0.021022 0
1.225067 0.160875 0
1.295924 0.257136 0
1.319180 0.301437 0
1.295315 0.303476 0
1.243578 0.275831 0
1.188757 0.223661 0
1.143381 0.151027 0
1.113080 0.060021 0
1.119235 -0.035189 0
1.174800 -0.088839 0
1.248727 -0.061709 0
1.302153 0.035792 0
1.307556 0.155273 0
1.267766 0.249455 0
1.208733 0.301378 0
1.154448 0.303016 0
1.128393 0.269998 0
1.101630 0.239399 0
1.085723 0.220996 0
1.049151 0.195151 0
0.925115 0.145472 0
0.722854 0.155082 0
0.546545 0.248319 0
0.465066 0.296240 0
0.473401 0.242903 0
0.540479 0.132149 0
0.608041 0.018848 0
0.628519 -0.045649 0
0.610011 -0.046425 0
0.582648 -0.017469 0
0.562529 0.015788 0
0.536947 0.068690 0
0.495259 0.147856 0
0.452147 0.190199 0
0.425493 0.149576 0
0.414322 0.058826 0
0.413322 -0.039071 0
0.423395 -0.120084 0
0.445410 -0.176241 0
0.491314 -0.206539 0
0.559678 -0.213136 0
0.640700 -0.202216 0
0.722638 -0.180645 0
0.793830 -0.158321 0
0.844905 -0.145942 0
0.867693 -0.150240 0
0.857876 -0.170083 0
0.820464 -0.198495 0
0.773380 -0.227204 0
0.735414 -0.247921 0
0.722648 -0.252847 0
0.731335 -0.238018 0
0.756137 -0.204946 0
0.790783 -0.158923 0
0.827727 -0.104903 0
0.868445 -0.047852 0
0.910723 0.003917 0
0.948390 0.044158 0
0.980180 0.069245 0
0.998295 0.077568 0
1.011442 0.077527 0
1.028775 0.077309 0
1.044681 0.072498 0
1.042408 0.049510 0
1.037973 0.031372 0
1.000000 -0.015187 0
1.001288 -0.051360 0
1.007485 -0.098869 0
1.014920 -0.162491 0
1.056352 -0.236301 0
1.110816 -0.309608 0
1.210435 -0.439350 0
1.491812 -0.466143 0
1.573460 -0.331482 0
1.572435 -0.221829 0
1.572059 -0.147400 0
1.574055 -0.087017 0
1.591509 -0.027111 0
1.635045 0.058156 0
1.666606 0.175809 0
1.652243 0.297520 0
1.589797 0.389466 0
1.491637 0.442050 0
1.365844 0.460426 0
1.237720 0.448360 0
1.093189 0.526091 0
0.887729 0.724214 0
0.913287 0.691886 0
1.028092 0.526923 0
0.854983 0.556541 0
0.788775 0.340227 0
0.815960 -0.114835 0
0.752785 -0.413181 0
0.625470 -0.673848 0
0.479078 -0.898034 0
0.368476 -0.976060 0
0.365581 -0.897232 0
0.485358 -0.704115 0
0.661284 -0.469061 0
0.830179 -0.236058 0
0.947490 -0.052420 0
1.034430 0.076712 0
1.103427 0.191345 0
1.162337 0.283504 0
1.201020 0.323894 0
1.199635 0.306894 0
1.162560 0.250779 0
1.118514 0.176077 0
1.077359 0.071042 0
1.049544 -0.065175 0
1.075146 -0.158721 0
1.134303 -0.143238 0
1.191884 -0.032763 0
1.242068 0.114509 0
1.278124 0.238852 0
1.294631 0.310055 0
1.292429 0.329274 0
1.259113 0.322434 0
1.202329 0.314079 0
1.148863 0.301670 0
1.105667 0.263845 0
1.012997 0.284934 0
0.846404 0.371363 0
0.737035 0.387858 0
0.741430 0.305094 0
0.788825 0.173959 0
0.824812 0.071277 0
0.828301 0.036113 0
0.801236 0.025308 0
0.773519 -0.007258 0
0.762156 -0.032810 0
0.755226 0.005053 0
0.728740 0.104823 0
0.683623 0.198618 0
0.649161 0.221021 0
0.621356 0.166529 0
0.594108 0.075464 0
0.558277 -0.020680 0
0.522366 -0.105210 0
0.494538 -0.178634 0
0.485102 -0.240276 0
0.504146 -0.277948 0
0.551677 -0.292128 0
0.620487 -0.287781 0
0.702396 -0.269365 0
0.790218 -0.239023 0
0.872946 -0.199896 0
0.935229 -0.162840 0
0.963924 -0.145031 0
0.952863 -0.154199 0
0.908948 -0.183403 0
0.849026 -0.212265 0
0.797798 -0.223203 0
0.768284 -0.212990 0
0.762591 -0.184352 0
0.775811 -0.143788 0
0.801351 -0.097612 0
0.833763 -0.049801 0
0.865407 0.001097 0
0.891119 0.053960 0
0.911855 0.089215 0
0.935404 0.086140 0
0.966119 0.058706 0
0.997018 0.041372 0
1.024049 0.032449 0
1.029970 0.025827 0
1.000000 -0.015849 0
0.999068 -0.053976 0
1.002425 -0.098611 0
0.994423 -0.180305 0
1.019194 -0.279441 0
1.032971 -0.388255 0
1.178776 -0.672420 0
1.513590 -0.669696 0
1.404894 -0.333773 0
1.273305 -0.184852 0
1.184493 -0.127345 0
1.182573 -0.087787 0
1.079500 -0.068111 0
1.274672 -0.009045 0
1.408063 0.130786 0
1.485094 0.297470 0
1.508744 0.433630 0
1.503479 0.534818 0
1.456183 0.601902 0
1.360134 0.640359 0
1.200991 0.718944 0
1.134841 0.740791 0
1.288376 0.545853 0
1.222754 0.538968 0
0.915860 0.710120 0
0.877581 0.427911 0
0.885268 -0.042923 0
0.844747 -0.307928 0
0.737818 -0.543128 0
0.585551 -0.775780 0
0.469084 -0.882786 0
0.381625 -0.882758 0
0.379611 -0.804217 0
0.474859 -0.635631 0
0.626144 -0.414408 0
0.792411 -0.183234 0
0.908145 0.004933 0
0.972532 0.129224 0
1.009854 0.203840 0
1.030513 0.266173 0
1.046609 0.314287 0
1.063850 0.304779 0
1.104004 0.236226 0
1.117677 0.128987 0
1.057057 -0.032979 0
0.964648 -0.173600 0
0.915961 -0.178448 0
0.909772 -0.071975 0
0.927950 0.069031 0
0.958619 0.196890 0
0.988481 0.287072 0
1.005289 0.338534 0
1.005959 0.360098 0
1.002010 0.349649 0
1.000520 0.317658 0
0.980134 0.331018 0
0.903965 0.404736 0
0.872922 0.431044 0
0.918161 0.353294 0
0.980126 0.244452 0
1.015644 0.159522 0
1.014508 0.092675 0
1.005072 0.042426 0
1.011711 0.009135 0
1.017127 -0.007342 0
0.999151 0.000826 0
0.967830 0.049207 0
0.951366 0.140297 0
0.953903 0.227438 0
0.953935 0.252468 0
0.924472 0.204633 0
0.854624 0.121908 0
0.771132 0.032674 0
0.716087 -0.056342 0
0.671468 -0.138975 0
0.630760 -0.216144 0
0.605312 -0.279708 0
0.604640 -0.318555 0
0.623434 -0.331362 0
0.652474 -0.328050 0
0.689393 -0.316489 0
0.737095 -0.295249 0
0.799403 -0.261059 0
0.870184 -0.216127 0
0.930052 -0.172226 0
0.960415 -0.144082 0
0.950686 -0.141695 0
0.912296 -0.157274 0
0.863782 -0.169737 0
0.822996 -0.166448 0
0.798550 -0.143661 0
0.791302 -0.105803 0
0.795061 -0.060137 0
0.809473 -0.013196 0
0.844675 0.022800 0
0.899397 0.033285 0
0.957258 0.023264 0
0.997178 0.015695 0
1.019851 0.014570 0
1.036112 0.016560 0
1.038688 0.019725 0
1.000000 -0.014246 0
0.997750 -0.053773 0
0.990951 -0.094218 0
0.984146 -0.179255 0
0.967470 -0.274844 0
0.942388 -0.469185 0
1.024963 -0.919967 0
0.736966 -0.601062 0
-0.002331 0.000000 0
-0.001791 0.000000 0
0.418831 -0.055240 0
0.366344 0.017975 0
0.268288 -0.119211 0
0.502157 -0.270407 0
0.788195 -0.034614 0
0.840646 0.196838 0
1.111596 0.371080 0
1.245869 0.494610 0
1.293298 0.603770 0
1.302820 0.703551 0
1.279304 0.751381 0
1.348412 0.636827 0
1.337972 0.603970 0
0.947432 0.899436 0
0.809778 0.901709 0
0.935995 0.370815 0
0.921448 -0.082005 0
0.874091 -0.265736 0
0.843296 -0.414656 0
0.736974 -0.629306 0
0.611919 -0.772139 0
0.533543 -0.807764 0
0.463175 -0.797355 0
0.455378 -0.715600 0
0.534352 -0.553615 0
0.672005 -0.334426 0
0.799046 -0.103414 0
0.878014 0.089632 0
0.906288 0.225518 0
0.918729 0.287134 0
0.964452 0.273552 0
1.042013 0.193379 0
1.018727 0.122245 0
0.957169 0.117986 0
0.886416 0.087851 0
0.780988 -0.017628 0
0.683169 -0.088364 0
0.630019 -0.044754 0
0.614691 0.065659 0
0.627096 0.178319 0
0.656541 0.263385 0
0.694681 0.311796 0
0.738412 0.325712 0
0.782610 0.319517 0
0.807335 0.323547 0
0.804957 0.360402 0
0.827277 0.392146 0
0.906082 0.357168 0
0.995871 0.280655 0
1.049678 0.207611 0
1.081764 0.139580 0
1.103321 0.081852 0
1.116086 0.038912 0
1.122260 0.013255 0
1.122380 0.005305 0
1.119634 0.016490 0
1.122046 0.052841 0
1.140982 0.118753 0
1.175920 0.196052 0
1.194497 0.250455 0
1.166928 0.265844 0
1.093357 0.228807 0
1.014874 0.117860 0
0.953624 -0.005543 0
0.911660 -0.093305 0
0.885189 -0.174118 0
0.867033 -0.251825 0
0.847286 -0.310248 0
0.823328 -0.335612 0
0.802029 -0.335321 0
0.786307 -0.323641 0
0.773913 -0.309903 0
0.766784 -0.295926 0
0.775656 -0.275678 0
0.807688 -0.244428 0
0.856506 -0.204035 0
0.907231 -0.164144 0
0.938950 -0.136296 0
0.943646 -0.123688 0
0.926588 -0.119118 0
0.902350 -0.112092 0
0.885665 -0.094122 0
0.887091 -0.067970 0
0.907966 -0.048514 0
0.941722 -0.035963 0
0.980215 -0.023366 0
1.006519 -0.011639 0
1.014704 -0.003885 0
1.013459 0.002440 0
0.998839 0.013614 0
0.994712 0.021663 0
1.000000 -0.013588 0
1.000826 -0.044913 0
0.973132 -0.085001 0
0.979295 -0.156817 0
0.896546 -0.237677 0
0.895496 -0.445742 0
0.612419 -0.558191 0
0.000000 0.003088 0
-0.604585 0.250073 0
-0.496181 0.000000 0
0.000000 0.000000 0
-0.057370 0.060624 0
0.010334 -0.203924 0
-0.167446 -0.528952 0
0.117333 -0.207703 0
0.017408 -0.025931 0
0.517722 0.028407 0
0.791947 0.353114 0
1.043871 0.544949 0
1.121521 0.654351 0
1.172204 0.673349 0
1.196720 0.682120 0
0.953335 0.946830 0
0.760160 1.067159 0
0.969751 0.721552 0
1.037268 0.316236 0
0.875377 0.018977 0
0.761524 -0.229781 0
0.785135 -0.406016 0
0.801454 -0.544409 0
0.734301 -0.679360 0
0.697413 -0.734020 0
0.652032 -0.726058 0
0.573279 -0.706813 0
0.555496 -0.631041 0
0.632526 -0.447934 0
0.760435 -0.201082 0
0.876512 0.021977 0
0.959694 0.163120 0
1.030116 0.208004 0
1.045975 0.190997 0
0.953535 0.250500 0
0.785432 0.321066 0
0.657393 0.261295 0
0.602904 0.143199 0
0.558378 0.029645 0
0.484671 -0.027482 0
0.414856 -0.003500 0
0.380213 0.071952 0
0.383868 0.155039 0
0.418515 0.219486 0
0.472862 0.256662 0
0.534555 0.272168 0
0.592093 0.280726 0
0.640949 0.295312 0
0.698989 0.311077 0
0.790079 0.303612 0
0.898137 0.262452 0
0.979337 0.209700 0
1.035643 0.158561 0
1.079170 0.105880 0
1.112239 0.058355 0
1.136434 0.023490 0
1.154187 0.002843 0
1.168766 -0.004714 0
1.183472 0.001163 0
1.200436 0.027862 0
1.220930 0.086426 0
1.241732 0.173926 0
1.248294 0.261463 0
1.231070 0.305776 0
1.203878 0.273965 0
1.172413 0.172410 0
1.121137 0.046875 0
1.086533 -0.070537 0
1.074515 -0.171514 0
1.077090 -0.241802 0
1.084037 -0.274847 0
1.092596 -0.286102 0
1.097078 -0.291026 0
1.081131 -0.288370 0
1.035307 -0.275723 0
0.965347 -0.262799 0
0.890870 -0.257028 0
0.836500 -0.253073 0
0.816272 -0.243622 0
0.827728 -0.224137 0
0.863414 -0.193686 0
0.906120 -0.157372 0
0.937664 -0.125149 0
0.954329 -0.102735 0
0.958237 -0.090541 0
0.960940 -0.082436 0
0.967901 -0.067825 0
0.969982 -0.049447 0
0.969867 -0.031509 0
0.966708 -0.011223 0
0.958954 0.008758 0
0.943716 0.030438 0
0.929221 0.035310 0
0.925345 0.028491 0
1.000000 -0.015059 0
0.990956 -0.026888 0
0.976356 -0.072680 0
0.945962 -0.102662 0
0.887768 -0.191039 0
0.807785 -0.185051 0
0.491388 -0.104225 0
0.361527 -0.068402 0
0.000000 0.000000 0
0.000000 0.000000 0
0.000000 0.000000 0
0.000000 0.000000 0
0.055114 -0.014646 0
-0.204119 -0.377407 0
-0.403595 -0.219468 0
-0.212880 -0.203551 0
-0.113849 -0.403459 0
0.126964 -0.031540 0
0.718580 0.274195 0
0.971262 0.575216 0
1.068045 0.676180 0
0.982203 0.855693 0
0.844222 1.040527 0
0.991171 0.883016 0
1.052295 0.624597 0
0.922646 0.465186 0
0.758472 0.193735 0
0.645345 -0.175500 0
0.605600 -0.454592 0
0.661378 -0.578477 0
0.705261 -0.668104 0
0.727703 -0.725501 0
0.801485 -0.673227 0
0.790775 -0.619070 0
0.652622 -0.612868 0
0.581177 -0.539371 0
0.648867 -0.347406 0
0.786666 -0.109632 0
0.909132 0.071909 0
0.937536 0.200848 0
0.835957 0.350129 0
0.684225 0.453918 0
0.641286 0.418384 0
0.620178 0.300511 0
0.564919 0.186863 0
0.481354 0.100601 0
0.379848 0.055156 0
0.285612 0.059703 0
0.226911 0.096645 0
0.212438 0.140016 0
0.237391 0.174391 0
0.290466 0.195755 0
0.358378 0.206480 0
0.432122 0.213124 0
0.513843 0.216651 0
0.610358 0.211272 0
0.719588 0.192999 0
0.825067 0.167910 0
0.911273 0.143151 0
0.981903 0.107780 0
1.035357 0.062986 0
1.077591 0.024590 0
1.111449 -0.003034 0
1.137718 -0.019075 0
1.158687 -0.023978 0