# vtk DataFile Version 2.0
generated by CFD-lab course output (written by Tobias Neckel) 
ASCII

DATASET STRUCTURED_GRID
DIMENSIONS  101 21 1 
POINTS 2121 float

0.000000 0.000000 0
0.100000 0.000000 0
0.200000 0.000000 0
0.300000 0.000000 0
0.400000 0.000000 0
0.500000 0.000000 0
0.600000 0.000000 0
0.700000 0.000000 0
0.800000 0.000000 0
0.900000 0.000000 0
1.000000 0.000000 0
1.100000 0.000000 0
1.200000 0.000000 0
1.300000 0.000000 0
1.400000 0.000000 0
1.500000 0.000000 0
1.600000 0.000000 0
1.700000 0.000000 0
1.800000 0.000000 0
1.900000 0.000000 0
2.000000 0.000000 0
2.100000 0.000000 0
2.200000 0.000000 0
2.300000 0.000000 0
2.400000 0.000000 0
2.500000 0.000000 0
2.600000 0.000000 0
2.700000 0.000000 0
2.800000 0.000000 0
2.900000 0.000000 0
3.000000 0.000000 0
3.100000 0.000000 0
3.200000 0.000000 0
3.300000 0.000000 0
3.400000 0.000000 0
3.500000 0.000000 0
3.600000 0.000000 0
3.700000 0.000000 0
3.800000 0.000000 0
3.900000 0.000000 0
4.000000 0.000000 0
4.100000 0.000000 0
4.200000 0.000000 0
4.300000 0.000000 0
4.400000 0.000000 0
4.500000 0.000000 0
4.600000 0.000000 0
4.700000 0.000000 0
4.800000 0.000000 0
4.900000 0.000000 0
5.000000 0.000000 0
5.100000 0.000000 0
5.200000 0.000000 0
5.300000 0.000000 0
5.400000 0.000000 0
5.500000 0.000000 0
5.600000 0.000000 0
5.700000 0.000000 0
5.800000 0.000000 0
5.900000 0.000000 0
6.000000 0.000000 0
6.100000 0.000000 0
6.200000 0.000000 0
6.300000 0.000000 0
6.400000 0.000000 0
6.500000 0.000000 0
6.600000 0.000000 0
6.700000 0.000000 0
6.800000 0.000000 0
6.900000 0.000000 0
7.000000 0.000000 0
7.100000 0.000000 0
7.200000 0.000000 0
7.300000 0.000000 0
7.400000 0.000000 0
7.500000 0.000000 0
7.600000 0.000000 0
7.700000 0.000000 0
7.800000 0.000000 0
7.900000 0.000000 0
8.000000 0.000000 0
8.100000 0.000000 0
8.200000 0.000000 0
8.300000 0.000000 0
8.400000 0.000000 0
8.500000 0.000000 0
8.600000 0.000000 0
8.700000 0.000000 0
8.800000 0.000000 0
8.900000 0.000000 0
9.000000 0.000000 0
9.100000 0.000000 0
9.200000 0.000000 0
9.300000 0.000000 0
9.400000 0.000000 0
9.500000 0.000000 0
9.600000 0.000000 0
9.700000 0.000000 0
9.800000 0.000000 0
9.900000 0.000000 0
10.000000 0.000000 0
0.000000 0.100000 0
0.100000 0.100000 0
0.200000 0.100000 0
0.300000 0.100000 0
0.400000 0.100000 0
0.500000 0.100000 0
0.600000 0.100000 0
0.700000 0.100000 0
0.800000 0.100000 0
0.900000 0.100000 0
1.000000 0.100000 0
1.100000 0.100000 0
1.200000 0.100000 0
1.300000 0.100000 0
1.400000 0.100000 0
1.500000 0.100000 0
1.600000 0.100000 0
1.700000 0.100000 0
1.800000 0.100000 0
1.900000 0.100000 0
2.000000 0.100000 0
2.100000 0.100000 0
2.200000 0.100000 0
2.300000 0.100000 0
2.400000 0.100000 0
2.500000 0.100000 0
2.600000 0.100000 0
2.700000 0.100000 0
2.800000 0.100000 0
2.900000 0.100000 0
3.000000 0.100000 0
3.100000 0.100000 0
3.200000 0.100000 0
3.300000 0.100000 0
3.400000 0.100000 0
3.500000 0.100000 0
3.600000 0.100000 0
3.700000 0.100000 0
3.800000 0.100000 0
3.900000 0.100000 0
4.000000 0.100000 0
4.100000 0.100000 0
4.200000 0.100000 0
4.300000 0.100000 0
4.400000 0.100000 0
4.500000 0.100000 0
4.600000 0.100000 0
4.700000 0.100000 0
4.800000 0.100000 0
4.900000 0.100000 0
5.000000 0.100000 0
5.100000 0.100000 0
5.200000 0.100000 0
5.300000 0.100000 0
5.400000 0.100000 0
5.500000 0.100000 0
5.600000 0.100000 0
5.700000 0.100000 0
5.800000 0.100000 0
5.900000 0.100000 0
6.000000 0.100000 0
6.100000 0.100000 0
6.200000 0.100000 0
6.300000 0.100000 0
6.400000 0.100000 0
6.500000 0.100000 0
6.600000 0.100000 0
6.700000 0.100000 0
6.800000 0.100000 0
6.900000 0.100000 0
7.000000 0.100000 0
7.100000 0.100000 0
7.200000 0.100000 0
7.300000 0.100000 0
7.400000 0.100000 0
7.500000 0.100000 0
7.600000 0.100000 0
7.700000 0.100000 0
7.800000 0.100000 0
7.900000 0.100000 0
8.000000 0.100000 0
8.100000 0.100000 0
8.200000 0.100000 0
8.300000 0.100000 0
8.400000 0.100000 0
8.500000 0.100000 0
8.600000 0.100000 0
8.700000 0.100000 0
8.800000 0.100000 0
8.900000 0.100000 0
9.000000 0.100000 0
9.100000 0.100000 0
9.200000 0.100000 0
9.300000 0.100000 0
9.400000 0.100000 0
9.500000 0.100000 0
9.600000 0.100000 0
9.700000 0.100000 0
9.800000 0.100000 0
9.900000 0.100000 0
10.000000 0.100000 0
0.000000 0.200000 0
0.100000 0.200000 0
0.200000 0.200000 0
0.300000 0.200000 0
0.400000 0.200000 0
0.500000 0.200000 0
0.600000 0.200000 0
0.700000 0.200000 0
0.800000 0.200000 0
0.900000 0.200000 0
1.000000 0.200000 0
1.100000 0.200000 0
1.200000 0.200000 0
1.300000 0.200000 0
1.400000 0.200000 0
1.500000 0.200000 0
1.600000 0.200000 0
1.700000 0.200000 0
1.800000 0.200000 0
1.900000 0.200000 0
2.000000 0.200000 0
2.100000 0.200000 0
2.200000 0.200000 0
2.300000 0.200000 0
2.400000 0.200000 0
2.500000 0.200000 0
2.600000 0.200000 0
2.700000 0.200000 0
2.800000 0.200000 0
2.900000 0.200000 0
3.000000 0.200000 0
3.100000 0.200000 0
3.200000 0.200000 0
3.300000 0.200000 0
3.400000 0.200000 0
3.500000 0.200000 0
3.600000 0.200000 0
3.700000 0.200000 0
3.800000 0.200000 0
3.900000 0.200000 0
4.000000 0.200000 0
4.100000 0.200000 0
4.200000 0.200000 0
4.300000 0.200000 0
4.400000 0.200000 0
4.500000 0.200000 0
4.600000 0.200000 0
4.700000 0.200000 0
4.800000 0.200000 0
4.900000 0.200000 0
5.000000 0.200000 0
5.100000 0.200000 0
5.200000 0.200000 0
5.300000 0.200000 0
5.400000 0.200000 0
5.500000 0.200000 0
5.600000 0.200000 0
5.700000 0.200000 0
5.800000 0.200000 0
5.900000 0.200000 0
6.000000 0.200000 0
6.100000 0.200000 0
6.200000 0.200000 0
6.300000 0.200000 0
6.400000 0.200000 0
6.500000 0.200000 0
6.600000 0.200000 0
6.700000 0.200000 0
6.800000 0.200000 0
6.900000 0.200000 0
7.000000 0.200000 0
7.100000 0.200000 0
7.200000 0.200000 0
7.300000 0.200000 0
7.400000 0.200000 0
7.500000 0.200000 0
7.600000 0.200000 0
7.700000 0.200000 0
7.800000 0.200000 0
7.900000 0.200000 0
8.000000 0.200000 0
8.100000 0.200000 0
8.200000 0.200000 0
8.300000 0.200000 0
8.400000 0.200000 0
8.500000 0.200000 0
8.600000 0.200000 0
8.700000 0.200000 0
8.800000 0.200000 0
8.900000 0.200000 0
9.000000 0.200000 0
9.100000 0.200000 0
9.200000 0.200000 0
9.300000 0.200000 0
9.400000 0.200000 0
9.500000 0.200000 0
9.600000 0.200000 0
9.700000 0.200000 0
9.800000 0.200000 0
9.900000 0.200000 0
10.000000 0.200000 0
0.000000 0.300000 0
0.100000 0.300000 0
0.200000 0.300000 0
0.300000 0.300000 0
0.400000 0.300000 0
0.500000 0.300000 0
0.600000 0.300000 0
0.700000 0.300000 0
0.800000 0.300000 0
0.900000 0.300000 0
1.000000 0.300000 0
1.100000 0.300000 0
1.200000 0.300000 0
1.300000 0.300000 0
1.400000 0.300000 0
1.500000 0.300000 0
1.600000 0.300000 0
1.700000 0.300000 0
1.800000 0.300000 0
1.900000 0.300000 0
2.000000 0.300000 0
2.100000 0.300000 0
2.200000 0.300000 0
2.300000 0.300000 0
2.400000 0.300000 0
2.500000 0.300000 0
2.600000 0.300000 0
2.700000 0.300000 0
2.800000 0.300000 0
2.900000 0.300000 0
3.000000 0.300000 0
3.100000 0.300000 0
3.200000 0.300000 0
3.300000 0.300000 0
3.400000 0.300000 0
3.500000 0.300000 0
3.600000 0.300000 0
3.700000 0.300000 0
3.800000 0.300000 0
3.900000 0.300000 0
4.000000 0.300000 0
4.100000 0.300000 0
4.200000 0.300000 0
4.300000 0.300000 0
4.400000 0.300000 0
4.500000 0.300000 0
4.600000 0.300000 0
4.700000 0.300000 0
4.800000 0.300000 0
4.900000 0.300000 0
5.000000 0.300000 0
5.100000 0.300000 0
5.200000 0.300000 0
5.300000 0.300000 0
5.400000 0.300000 0
5.500000 0.300000 0
5.600000 0.300000 0
5.700000 0.300000 0
5.800000 0.300000 0
5.900000 0.300000 0
6.000000 0.300000 0
6.100000 0.300000 0
6.200000 0.300000 0
6.300000 0.300000 0
6.400000 0.300000 0
6.500000 0.300000 0
6.600000 0.300000 0
6.700000 0.300000 0
6.800000 0.300000 0
6.900000 0.300000 0
7.000000 0.300000 0
7.100000 0.300000 0
7.200000 0.300000 0
7.300000 0.300000 0
7.400000 0.300000 0
7.500000 0.300000 0
7.600000 0.300000 0
7.700000 0.300000 0
7.800000 0.300000 0
7.900000 0.300000 0
8.000000 0.300000 0
8.100000 0.300000 0
8.200000 0.300000 0
8.300000 0.300000 0
8.400000 0.300000 0
8.500000 0.300000 0
8.600000 0.300000 0
8.700000 0.300000 0
8.800000 0.300000 0
8.900000 0.300000 0
9.000000 0.300000 0
9.100000 0.300000 0
9.200000 0.300000 0
9.300000 0.300000 0
9.400000 0.300000 0
9.500000 0.300000 0
9.600000 0.300000 0
9.700000 0.300000 0
9.800000 0.300000 0
9.900000 0.300000 0
10.000000 0.300000 0
0.000000 0.400000 0
0.100000 0.400000 0
0.200000 0.400000 0
0.300000 0.400000 0
0.400000 0.400000 0
0.500000 0.400000 0
0.600000 0.400000 0
0.700000 0.400000 0
0.800000 0.400000 0
0.900000 0.400000 0
1.000000 0.400000 0
1.100000 0.400000 0
1.200000 0.400000 0
1.300000 0.400000 0
1.400000 0.400000 0
1.500000 0.400000 0
1.600000 0.400000 0
1.700000 0.400000 0
1.800000 0.400000 0
1.900000 0.400000 0
2.000000 0.400000 0
2.100000 0.400000 0
2.200000 0.400000 0
2.300000 0.400000 0
2.400000 0.400000 0
2.500000 0.400000 0
2.600000 0.400000 0
2.700000 0.400000 0
2.800000 0.400000 0
2.900000 0.400000 0
3.000000 0.400000 0
3.100000 0.400000 0
3.200000 0.400000 0
3.300000 0.400000 0
3.400000 0.400000 0
3.500000 0.400000 0
3.600000 0.400000 0
3.700000 0.400000 0
3.800000 0.400000 0
3.900000 0.400000 0
4.000000 0.400000 0
4.100000 0.400000 0
4.200000 0.400000 0
4.300000 0.400000 0
4.400000 0.400000 0
4.500000 0.400000 0
4.600000 0.400000 0
4.700000 0.400000 0
4.800000 0.400000 0
4.900000 0.400000 0
5.000000 0.400000 0
5.100000 0.400000 0
5.200000 0.400000 0
5.300000 0.400000 0
5.400000 0.400000 0
5.500000 0.400000 0
5.600000 0.400000 0
5.700000 0.400000 0
5.800000 0.400000 0
5.900000 0.400000 0
6.000000 0.400000 0
6.100000 0.400000 0
6.200000 0.400000 0
6.300000 0.400000 0
6.400000 0.400000 0
6.500000 0.400000 0
6.600000 0.400000 0
6.700000 0.400000 0
6.800000 0.400000 0
6.900000 0.400000 0
7.000000 0.400000 0
7.100000 0.400000 0
7.200000 0.400000 0
7.300000 0.400000 0
7.400000 0.400000 0
7.500000 0.400000 0
7.600000 0.400000 0
7.700000 0.400000 0
7.800000 0.400000 0
7.900000 0.400000 0
8.000000 0.400000 0
8.100000 0.400000 0
8.200000 0.400000 0
8.300000 0.400000 0
8.400000 0.400000 0
8.500000 0.400000 0
8.600000 0.400000 0
[...]
POINT_DATA 2121 

VECTORS velocity float
0.500000 0.000000 0
-0.000036 0.000000 0
-0.000091 0.000000 0
-0.000175 0.000000 0
-0.000305 0.000000 0
-0.000492 0.000000 0
-0.000737 0.000000 0
-0.001020 0.000000 0
-0.001272 0.000000 0
-0.001414 0.000000 0
-0.001417 0.000000 0
-0.001263 0.000000 0
-0.000938 0.000000 0
-0.000416 0.000000 0
0.000329 0.000000 0
0.001261 0.000000 0
0.002260 0.000000 0
0.003220 0.000000 0
0.004103 0.000000 0
0.004766 0.000000 0
0.005149 0.000000 0
0.007497 0.000000 0
0.005990 0.000000 0
0.006361 0.000000 0
0.010023 0.000000 0
0.009934 0.000000 0
0.006169 0.000000 0
0.008458 0.000000 0
0.009070 0.000000 0
-0.001021 0.000000 0
-0.014688 0.000000 0
-0.028813 0.000000 0
-0.033082 0.000000 0
-0.025009 0.000000 0
-0.026115 0.000000 0
-0.028598 0.000000 0
-0.030751 0.000000 0
-0.029499 0.000000 0
-0.018243 0.000000 0
-0.008836 0.000000 0
0.001119 0.000000 0
0.013213 0.000000 0
0.027326 0.000000 0
0.034614 0.000000 0
0.032437 0.000000 0
0.026538 0.000000 0
0.025555 0.000000 0
0.018187 0.000000 0
0.005776 0.000000 0
-0.000103 0.000000 0
-0.002811 0.000000 0
-0.004398 0.000000 0
-0.001789 0.000000 0
-0.000331 0.000000 0
-0.000636 0.000000 0
-0.000803 0.000000 0
-0.000732 0.000000 0
-0.000685 0.000000 0
-0.000731 0.000000 0
-0.000796 0.000000 0
-0.000842 0.000000 0
-0.000868 0.000000 0
-0.000879 0.000000 0
-0.000880 0.000000 0
-0.000878 0.000000 0
-0.000876 0.000000 0
-0.000873 0.000000 0
-0.000859 0.000000 0
-0.000830 0.000000 0
-0.000794 0.000000 0
-0.000760 0.000000 0
-0.000733 0.000000 0
-0.000707 0.000000 0
-0.000670 0.000000 0
-0.000619 0.000000 0
-0.000567 0.000000 0
-0.000529 0.000000 0
-0.000513 0.000000 0
-0.000507 0.000000 0
-0.000488 0.000000 0
-0.000445 0.000000 0
-0.000386 0.000000 0
-0.000331 0.000000 0
-0.000302 0.000000 0
-0.000303 0.000000 0
-0.000330 0.000000 0
-0.000371 0.000000 0
-0.000401 0.000000 0
-0.000370 0.000000 0
-0.000325 0.000000 0
-0.000287 0.000000 0
-0.000259 0.000000 0
-0.000239 0.000000 0
-0.000225 0.000000 0
-0.000216 0.000000 0
-0.000210 0.000000 0
-0.000205 0.000000 0
-0.000203 0.000000 0
-0.000201 0.000000 0
-0.000201 0.000000 0
-0.000200 0.000000 0
1.000000 -0.003058 0
1.006648 -0.009747 0
1.020752 -0.017413 0
1.043082 -0.025783 0
1.074422 -0.034433 0
1.114998 -0.042449 0
1.163723 -0.048468 0
1.218072 -0.050733 0
1.272087 -0.048436 0
1.320675 -0.042675 0
1.361396 -0.035147 0
1.393798 -0.026903 0
1.417763 -0.018124 0
1.433178 -0.008163 0
1.438228 0.004020 0
1.429503 0.018606 0
1.404328 0.034325 0
1.362808 0.049598 0
1.306476 0.063149 0
1.238181 0.072330 0
1.159292 0.081033 0
1.074413 0.113577 0
0.998539 0.115175 0
0.862442 0.103732 0
0.698969 0.137875 0
0.560725 0.146382 0
0.462528 0.114868 0
0.305268 0.147083 0
0.074402 0.176556 0
-0.032844 0.064990 0
-0.003540 -0.130131 0
0.153713 -0.297391 0
0.429688 -0.343596 0
0.764270 -0.281832 0
1.053946 -0.236186 0
1.276935 -0.235223 0
1.480647 -0.229187 0
1.663860 -0.199791 0
1.815123 -0.134764 0
1.921125 -0.058998 0
1.966446 0.010112 0
1.933169 0.092676 0
1.816328 0.181730 0
1.640189 0.233748 0
1.444820 0.235027 0
1.268472 0.218393 0
1.129728 0.208823 0
1.038908 0.164328 0
0.981773 0.078563 0
0.947258 0.012040 0
0.919817 -0.020418 0
0.882220 -0.032741 0
0.838115 -0.022229 0
0.811163 -0.007708 0
0.804057 -0.005991 0
0.810040 -0.007356 0
0.816190 -0.006786 0
0.820767 -0.005943 0
0.825534 -0.005777 0
0.831457 -0.006006 0
0.838072 -0.006221 0
0.844824 -0.006315 0
0.851453 -0.006291 0
0.857973 -0.006187 0
0.864496 -0.006076 0
0.871058 -0.006005 0
0.877560 -0.005944 0
0.883858 -0.005810 0
0.889900 -0.005552 0
0.895760 -0.005225 0
0.901514 -0.004933 0
0.907095 -0.004714 0
0.912315 -0.004501 0
0.917007 -0.004196 0
0.921167 -0.003762 0
0.924994 -0.003295 0
0.928712 -0.002965 0
0.932372 -0.002834 0
0.935822 -0.002793 0
0.938807 -0.002650 0
0.941213 -0.002278 0
0.943095 -0.001736 0
0.944681 -0.001225 0
0.946198 -0.000946 0
0.947836 -0.000948 0
0.949652 -0.001193 0
0.951569 -0.001551 0
0.953435 -0.001823 0
0.954977 -0.001730 0
0.956218 -0.001348 0
0.957203 -0.000993 0
0.957982 -0.000721 0
0.958597 -0.000522 0
0.959083 -0.000377 0
0.959468 -0.000275 0
0.959775 -0.000200 0
0.960021 -0.000158 0
0.960227 -0.000132 0
0.960411 -0.000186 0
0.960607 -0.000331 0
0.960830 -0.000403 0
1.000000 -0.006663 0
1.006696 -0.020772 0
1.021110 -0.036445 0
1.044048 -0.053680 0
1.077040 -0.071924 0
1.121251 -0.089309 0
1.175982 -0.103082 0
1.240872 -0.108371 0
1.304142 -0.102609 0
1.358260 -0.089315 0
1.401459 -0.073129 0
1.435464 -0.056372 0
1.460988 -0.039385 0
1.480011 -0.020469 0
1.490697 0.003671 0
1.486612 0.033898 0
1.462001 0.066693 0
1.419079 0.097851 0
1.360101 0.124626 0
1.287150 0.147185 0
1.201459 0.163769 0
1.113737 0.160754 0
1.033664 0.211973 0
0.891581 0.299573 0
0.761822 0.301719 0
0.683927 0.236444 0
0.594258 0.255460 0
0.345698 0.388129 0
0.203431 0.338115 0
0.239398 0.077945 0
0.301535 -0.186555 0
0.314875 -0.433227 0
0.353846 -0.610555 0
0.533944 -0.624256 0
0.831530 -0.512664 0
1.076573 -0.426701 0
1.238215 -0.386925 0
1.359422 -0.334476 0
1.455875 -0.257266 0
1.544702 -0.151324 0
1.602553 -0.012045 0
1.602848 0.150116 0
1.557033 0.292978 0
1.477504 0.371507 0
1.376532 0.371715 0
1.265520 0.315090 0
1.162052 0.229562 0
1.073299 0.147953 0
1.031138 0.091649 0
1.013634 0.061955 0
1.012328 0.065036 0
0.995801 0.081701 0
0.967808 0.071055 0
0.948166 0.034057 0
0.924970 0.001123 0
0.895189 -0.012134 0
0.871227 -0.010728 0
0.858032 -0.009345 0
0.856059 -0.010691 0
0.861339 -0.012539 0
0.868717 -0.013367 0
0.876121 -0.013381 0
0.883224 -0.013150 0
0.890215 -0.013043 0
0.897242 -0.013086 0
0.904311 -0.013065 0
0.911370 -0.012801 0
0.918402 -0.012341 0
0.925412 -0.011903 0
0.932348 -0.011615 0
0.939041 -0.011336 0
0.945306 -0.010802 0
0.951044 -0.009914 0
0.956308 -0.008854 0
0.961280 -0.007988 0
0.966092 -0.007547 0
0.970714 -0.007380 0
0.974940 -0.007112 0
0.978563 -0.006438 0
0.981540 -0.005393 0
0.984027 -0.004290 0
0.986334 -0.003471 0
0.988677 -0.003106 0
0.991162 -0.003158 0
0.993697 -0.003457 0
0.996139 -0.003736 0
0.998260 -0.003786 0
0.999864 -0.003411 0
1.000997 -0.002785 0
1.001971 -0.002229 0
1.002844 -0.001768 0
1.003618 -0.001398 0
1.004293 -0.001104 0
1.004874 -0.000874 0
1.005369 -0.000694 0
1.005785 -0.000556 0
1.006138 -0.000456 0
1.006422 -0.000393 0
1.006667 -0.000382 0
1.006806 -0.000423 0
1.006846 -0.000447 0
1.000000 -0.009763 0
1.005059 -0.030865 0
1.018359 -0.054764 0
1.039919 -0.081713 0
1.073243 -0.111637 0
1.121365 -0.141391 0
1.183781 -0.168090 0
1.272263 -0.178894 0
1.351606 -0.165825 0
1.411776 -0.139993 0
1.454057 -0.112352 0
1.484419 -0.086433 0
1.507704 -0.062671 0
1.529701 -0.037872 0
1.549611 -0.002581 0
1.555488 0.047302 0
1.535341 0.101859 0
1.486600 0.151499 0
1.418503 0.195080 0
1.341415 0.230974 0
1.262658 0.254447 0
1.174373 0.281374 0
1.052020 0.337332 0
0.978509 0.375575 0
0.929879 0.345531 0
0.849773 0.313947 0
0.680128 0.453099 0
0.463527 0.537911 0
0.483976 0.282857 0
0.577823 -0.033113 0
0.606274 -0.205607 0
0.601543 -0.349701 0
0.556986 -0.562664 0
0.514925 -0.759517 0
0.613773 -0.778815 0
0.836496 -0.641909 0
1.026284 -0.512036 0
1.132918 -0.417450 0
1.185729 -0.320045 0
1.229530 -0.205677 0
1.258379 -0.048034 0
1.269167 0.138195 0
1.265461 0.307073 0
1.245079 0.414248 0
1.206455 0.447010 0
1.145629 0.432872 0
1.064612 0.401044 0
0.981195 0.295242 0
0.942875 0.138227 0
0.927393 0.030849 0
0.903930 -0.002586 0
0.903616 0.011778 0
0.920325 0.025406 0
0.924502 0.035131 0
0.909959 0.046986 0
0.882749 0.046386 0
0.858146 0.030370 0
0.844957 0.009225 0
0.846769 -0.009084 0
0.856912 -0.018664 0
0.865630 -0.021004 0
0.872477 -0.020823 0
0.878673 -0.020385 0
0.885071 -0.020206 0
0.891943 -0.020173 0
0.899258 -0.020134 0
0.906921 -0.020036 0
0.914832 -0.019852 0
0.922797 -0.019499 0
0.930509 -0.018855 0
0.937698 -0.017891 0
0.944278 -0.016717 0
0.950376 -0.015504 0
0.956204 -0.014433 0
0.961848 -0.013547 0
0.967170 -0.012730 0
0.971881 -0.011813 0
0.975834 -0.010684 0
0.979102 -0.009394 0
0.981995 -0.008115 0
0.984779 -0.007073 0
0.987638 -0.006386 0
0.990583 -0.006054 0
0.993465 -0.005967 0
0.996100 -0.005927 0
0.998275 -0.005757 0
0.999887 -0.005278 0
1.001040 -0.004562 0
1.002087 -0.003838 0
1.003045 -0.003196 0
1.003914 -0.002642 0
1.004688 -0.002172 0
1.005368 -0.001780 0
1.005956 -0.001455 0
1.006459 -0.001187 0
1.006881 -0.000969 0
1.007231 -0.000796 0
1.007512 -0.000663 0
1.007725 -0.000572 0
1.007851 -0.000511 0
1.007882 -0.000480 0
1.000000 -0.011728 0
1.000581 -0.039137 0
1.013196 -0.071303 0
1.030453 -0.108564 0
1.062332 -0.153371 0
1.113065 -0.199845 0
1.184476 -0.253979 0
1.330663 -0.276197 0
1.427785 -0.242123 0
1.479358 -0.191766 0
1.509594 -0.145771 0
1.528688 -0.110019 0
1.540935 -0.084667 0
1.561291 -0.062376 0
1.598248 -0.022115 0
1.629063 0.048168 0
1.629351 0.135583 0
1.587110 0.214690 0
1.500626 0.269813 0
1.391492 0.303032 0
1.281001 0.330813 0
1.177521 0.371394 0
1.098132 0.407839 0
1.060114 0.421715 0
1.006422 0.430457 0
0.905446 0.486197 0
0.717379 0.641708 0
0.678623 0.584282 0
0.720872 0.223820 0
0.594043 -0.044352 0
0.445726 -0.210274 0
0.459067 -0.383938 0
0.553136 -0.523937 0
0.588153 -0.681043 0
0.571204 -0.834236 0
0.632842 -0.839213 0
0.785435 -0.683347 0
0.915123 -0.493922 0
0.992131 -0.353879 0
1.028045 -0.223975 0
1.044710 -0.051683 0
1.052818 0.143034 0
1.058541 0.317064 0
1.065374 0.430512 0
1.069917 0.471165 0
1.067855 0.456931 0
1.064569 0.393995 0
1.060789 0.269689 0
1.005786 0.145450 0
0.937703 0.100899 0
0.883713 0.088812 0
0.869972 0.065304 0
0.878348 0.050169 0
0.888965 0.044423 0
0.902010 0.042875 0
0.918513 0.039679 0
0.931661 0.027064 0
0.933908 0.002032 0
0.920045 -0.022646 0
0.898468 -0.031400 0
0.883040 -0.028933 0
0.875718 -0.026424 0
0.874944 -0.025744 0
0.878663 -0.026314 0
0.885222 -0.027272 0
0.893459 -0.028043 0
0.902557 -0.028376 0
0.911920 -0.028218 0
0.921095 -0.027581 0
0.929751 -0.026517 0
0.937731 -0.025106 0
0.945027 -0.023481 0
0.951764 -0.021841 0
0.958083 -0.020326 0
0.963955 -0.018955 0
0.969238 -0.017581 0
0.973771 -0.016045 0
0.977542 -0.014334 0
0.980770 -0.012600 0
0.983723 -0.011071 0
0.986715 -0.009935 0
0.989796 -0.009277 0
0.992871 -0.008933 0
0.995751 -0.008676 0
0.998078 -0.008268 0
0.999795 -0.007524 0
1.001060 -0.006553 0
1.002106 -0.005612 0
1.003041 -0.004792 0
1.003881 -0.004057 0
1.004632 -0.003412 0
1.005298 -0.002853 0
1.005882 -0.002374 0
1.006386 -0.001966 0
1.006816 -0.001621 0
1.007177 -0.001330 0
1.007472 -0.001088 0
1.007704 -0.000888 0
1.007872 -0.000724 0
1.007972 -0.000582 0
1.007995 -0.000507 0
1.000000 -0.010348 0
1.000351 -0.044064 0
1.005680 -0.084635 0
1.011031 -0.130848 0
1.040750 -0.194248 0
1.084573 -0.263534 0
1.174041 -0.385687 0
1.430371 -0.422203 0
1.503459 -0.314519 0
1.500871 -0.221801 0
1.490073 -0.161682 0
1.482160 -0.117774 0
1.464139 -0.095273 0
1.455538 -0.095183 0
1.509250 -0.070352 0
1.587428 0.016201 0
1.634674 0.143814 0
1.653470 0.280226 0
1.607379 0.390699 0
1.509980 0.450601 0
1.379543 0.468421 0
1.249063 0.464246 0
1.154100 0.454742 0
1.077388 0.467286 0
0.995273 0.500201 0
0.914355 0.602993 0
0.807772 0.679923 0
0.823736 0.534419 0
0.745197 0.367438 0
0.563161 0.242035 0
0.473866 -0.070630 0
0.448328 -0.457112 0
0.480312 -0.691751 0
0.570070 -0.777585 0
0.622184 -0.823505 0
0.612696 -0.856140 0
0.633589 -0.794318 0
0.716108 -0.624147 0
0.795228 -0.432967 0
0.817473 -0.258256 0
0.812843 -0.072809 0
0.815924 0.124363 0
0.843312 0.294516 0
0.893007 0.402870 0
0.946114 0.444528 0
0.985101 0.438219 0
1.008469 0.408109 0
1.006672 0.354025 0
0.961997 0.261312 0
0.912898 0.152921 0
0.906046 0.065144 0
0.913519 0.017142 0
0.914520 0.006412 0
0.912959 0.011468 0
0.911773 0.017437 0
0.911963 0.016734 0
0.912742 0.014975 0
0.907226 0.020841 0
0.889731 0.026355 0
0.867845 0.018341 0
0.854489 0.001746 0
0.850665 -0.012727 0
0.854002 -0.023330 0
0.861903 -0.030485 0
0.872411 -0.034969 0
0.884229 -0.037469 0
0.896484 -0.038498 0
0.908489 -0.038390 0
0.919694 -0.037330 0
0.929767 -0.035492 0
0.938709 -0.033168 0
0.946809 -0.030751 0
0.954309 -0.028561 0
0.961218 -0.026624 0
0.967315 -0.024703 0
0.972362 -0.022547 0
0.976406 -0.020118 0
0.979770 -0.017684 0
0.983004 -0.015576 0
0.986368 -0.014061 0
0.989892 -0.013147 0
0.993407 -0.012544 0
0.996360 -0.012010 0
0.998689 -0.011175 0
1.000317 -0.009973 0
1.001504 -0.008740 0
1.002489 -0.007589 0
1.003383 -0.006544 0
1.004169 -0.005615 0
1.004865 -0.004789 0
1.005482 -0.004061 0
1.006024 -0.003423 0
1.006496 -0.002869 0
1.006904 -0.002390 0
1.007250 -0.001979 0
1.007539 -0.001626 0
1.007773 -0.001324 0
1.007953 -0.001065 0
1.008081 -0.000841 0
1.008153 -0.000635 0
1.008166 -0.000525 0
1.000000 -0.012080 0
1.002376 -0.044817 0
0.999615 -0.081980 0
0.988101 -0.143631 0
1.011552 -0.226910 0
1.015524 -0.333134 0
1.138540 -0.599775 0
1.470734 -0.605613 0
1.359103 -0.312622 0
1.230315 -0.178381 0
1.140319 -0.127060 0
1.056077 -0.084085 0
1.065351 -0.058044 0
0.873357 -0.107485 0
0.923560 -0.154003 0
1.166251 -0.077253 0
1.306597 0.069544 0
1.441553 0.241988 0
1.474783 0.413306 0
1.472893 0.530871 0
1.431964 0.591733 0
1.353160 0.596839 0
1.248542 0.579516 0
1.126095 0.580545 0
1.021365 0.593492 0
0.927550 0.673700 0
0.878662 0.732329 0
0.832919 0.646857 0
0.707107 0.484396 0
0.652576 0.226980 0
0.665418 -0.095440 0
0.648465 -0.390384 0
0.621413 -0.645679 0
0.606476 -0.822915 0
0.624543 -0.876862 0
0.638244 -0.850618 0
0.617708 -0.786760 0
0.616202 -0.655563 0
0.651539 -0.455246 0
0.679015 -0.241591 0
0.687194 -0.050135 0
0.701282 0.112564 0
0.735895 0.239980 0
0.783871 0.327708 0
0.834223 0.379070 0
0.880841 0.394575 0
0.926556 0.372423 0
0.973693 0.316160 0
1.009868 0.239223 0
1.014302 0.156849 0
0.994147 0.088191 0
0.947981 0.056829 0
0.896627 0.050727 0
0.850128 0.047169 0
0.812636 0.043872 0
0.784236 0.038710 0
0.763048 0.031801 0
0.753200 0.025042 0
0.758827 0.016734 0
0.774675 0.003841 0
0.791494 -0.011753 0
0.808238 -0.025937 0
0.825142 -0.036983 0
0.842303 -0.044723 0
0.859575 -0.049599 0
0.876597 -0.052117 0
0.892789 -0.052637 0
0.907560 -0.051428 0
0.920610 -0.048859 0
0.932058 -0.045532 0
0.942319 -0.042148 0
0.951580 -0.039082 0
0.959688 -0.036251 0
0.966366 -0.033333 0
0.971601 -0.030101 0
0.975801 -0.026673 0
0.979534 -0.023453 0
0.983339 -0.020933 0
0.987529 -0.019199 0
0.991654 -0.017959 0
0.995180 -0.016975 0
0.998038 -0.015746 0
1.000066 -0.014217 0
1.001428 -0.012634 0
1.002481 -0.011084 0
1.003379 -0.009697 0
1.004157 -0.008433 0
1.004846 -0.007293 0
1.005450 -0.006276 0
1.005979 -0.005371 0
1.006442 -0.004572 0
1.006847 -0.003870 0
1.007198 -0.003256 0
1.007499 -0.002721 0
1.007754 -0.002257 0
1.007965 -0.001854 0
1.008134 -0.001503 0
1.008261 -0.001197 0
1.008347 -0.000925 0
1.008392 -0.000668 0
1.008393 -0.000533 0
1.000000 -0.012722 0
0.999691 -0.043675 0
0.990289 -0.070356 0
0.981168 -0.142781 0
0.962018 -0.221667 0
0.932319 -0.390518 0
1.002056 -0.840893 0
0.724900 -0.568664 0
0.001753 0.000000 0
0.002693 0.000000 0
0.417188 0.015574 0
0.358215 -0.042804 0
0.390654 0.087448 0
0.105360 0.046610 0
0.211530 -0.363243 0
0.439939 -0.366833 0
0.467247 -0.131485 0
0.969264 0.112043 0
1.095671 0.359362 0
1.194303 0.493423 0
1.236033 0.588157 0
1.254757 0.647671 0
1.230775 0.681810 0
1.172138 0.694465 0
1.101291 0.698748 0
1.009093 0.745698 0
0.966649 0.774556 0
0.919445 0.705975 0
0.848755 0.547782 0
0.782940 0.283725 0
0.722776 -0.066518 0
0.680913 -0.413107 0
0.691804 -0.649762 0
0.690419 -0.780716 0
0.648382 -0.855273 0
0.619777 -0.849306 0
0.604071 -0.772277 0
0.578959 -0.657979 0
0.575918 -0.495781 0
0.606359 -0.293912 0
0.647734 -0.095076 0
0.686450 0.075660 0
0.722717 0.211926 0
0.762630 0.304541 0
0.813763 0.347557 0
0.876359 0.345885 0
0.938183 0.315255 0
0.984995 0.270711 0
1.007516 0.220703 0
1.003150 0.168642 0
0.968868 0.131464 0
0.911868 0.114662 0
0.854500 0.104264 0
0.802121 0.095458 0
0.760068 0.083329 0
0.731723 0.066321 0
0.717227 0.046011 0
0.716195 0.025061 0
0.727387 0.004881 0
0.746748 -0.014327 0
0.769271 -0.031817 0
0.792699 -0.046376 0
0.816224 -0.057395 0
0.839116 -0.064918 0
0.860456 -0.069264 0
0.879767 -0.070683 0
0.897259 -0.069461 0
0.913372 -0.066211 0
0.928233 -0.061828 0
0.941350 -0.057202 0
0.952225 -0.052691 0
0.960666 -0.048121 0
0.966973 -0.043348 0
0.972144 -0.038537 0
0.977020 -0.034138 0
0.981983 -0.030481 0
0.986722 -0.027658 0
0.991115 -0.025680 0
0.995194 -0.023891 0
0.998348 -0.021714 0
1.000624 -0.019533 0
1.002124 -0.017431 0
1.003253 -0.015402 0
1.004108 -0.013590 0
1.004851 -0.011924 0
1.005475 -0.010418 0
1.006005 -0.009058 0
1.006459 -0.007837 0
1.006851 -0.006749 0
1.007189 -0.005783 0
1.007482 -0.004930 0
1.007737 -0.004180 0
1.007956 -0.003523 0
1.008145 -0.002948 0
1.008303 -0.002446 0
1.008432 -0.002007 0
1.008534 -0.001622 0
1.008608 -0.001280 0
1.008653 -0.000973 0
1.008671 -0.000682 0
1.008659 -0.000527 0
1.000000 -0.011767 0
1.002543 -0.035099 0
0.969734 -0.063451 0
0.983803 -0.115354 0
0.895161 -0.178055 0
0.885280 -0.373166 0
0.646060 -0.466451 0
0.000000 0.003263 0
-0.590798 0.199369 0
-0.483685 0.000000 0
0.000000 0.000000 0
0.011453 -0.061669 0
-0.046201 0.194814 0
0.080263 0.071642 0
0.016134 -0.488579 0
-0.260944 -0.332968 0
-0.201357 -0.459778 0
0.171864 -0.386432 0
0.388287 0.188270 0
0.783772 0.390513 0
1.001027 0.531282 0
1.110160 0.602100 0
1.149034 0.662138 0
1.158862 0.710031 0
1.122633 0.756539 0
1.068102 0.808344 0
1.059438 0.821979 0
1.052147 0.764752 0
1.024044 0.620902 0
0.986336 0.352960 0
0.916456 0.006587 0
0.773376 -0.359412 0
0.677156 -0.655186 0
0.646945 -0.779494 0
0.636027 -0.806221 0
0.599314 -0.806308 0
0.575387 -0.745943 0
0.560693 -0.627411 0
0.537577 -0.482646 0
0.522803 -0.313408 0
0.529365 -0.130227 0
0.558053 0.037579 0
0.611693 0.163799 0
0.688843 0.236661 0
0.773703 0.265339 0
0.846123 0.270154 0
0.895403 0.263787 0
0.924447 0.246826 0
0.934506 0.221067 0
0.922808 0.195497 0
0.883731 0.179472 0
0.833607 0.171196 0
0.782160 0.160473 0
0.739303 0.141600 0
0.710172 0.114270 0
0.695659 0.081550 0
0.694435 0.047328 0
0.704632 0.014882 0
0.724125 -0.013819 0
0.749962 -0.038043 0
0.778553 -0.057705 0
0.807111 -0.072891 0
0.834328 -0.083400 0
0.859769 -0.088955 0
0.882735 -0.090251 0
0.902650 -0.088920 0
0.919737 -0.086242 0
0.934929 -0.082403 0
0.948493 -0.076837 0
0.959484 -0.069524 0
0.968035 -0.061465 0
0.974295 -0.053832 0
0.978936 -0.047729 0
0.983881 -0.043381 0
0.988982 -0.039940 0
0.993579 -0.036376 0
0.997407 -0.032586 0
1.000425 -0.029406 0
1.002507 -0.026434 0
1.003951 -0.023390 0
1.005074 -0.020752 0
1.005861 -0.018377 0
1.006521 -0.016201 0
1.007020 -0.014234 0
1.007410 -0.012453 0
1.007712 -0.010852 0
1.007949 -0.009418 0
1.008140 -0.008140 0
1.008297 -0.007006 0
1.008429 -0.006004 0
1.008542 -0.005121 0
1.008642 -0.004345 0
1.008728 -0.003665 0
1.008803 -0.003069 0
1.008865 -0.002546 0
1.008915 -0.002087 0
1.008952 -0.001680 0
1.008974 -0.001317 0
1.008981 -0.000989 0
1.008972 -0.000675 0
1.008947 -0.000509 0
1.000000 -0.015258 0
0.986998 -0.013399 0
0.977517 -0.051608 0
0.942859 -0.068200 0
0.889046 -0.123136 0
0.828710 -0.141409 0
0.495150 -0.024106 0
0.371820 0.008899 0
0.000000 0.000000 0
0.000000 0.000000 0
0.000000 0.000000 0
0.000000 0.000000 0
-0.060947 0.019364 0
0.181132 -0.015722 0
-0.083721 -0.022033 0
-0.567192 -0.149338 0
-0.554743 -0.564288 0
-0.842870 -0.477597 0
-0.238675 -0.252542 0
0.278312 -0.119314 0
0.710155 0.261772 0
0.926458 0.499667 0
1.016632 0.633111 0
1.064625 0.720870 0
1.097158 0.789511 0
1.141188 0.808895 0
1.184265 0.790512 0
1.187738 0.741370 0
1.169728 0.613593 0
1.154432 0.391315 0
1.106598 0.146443 0
1.002882 -0.173807 0
0.788493 -0.523331 0
0.604303 -0.739587 0
0.555880 -0.807643 0
0.562052 -0.788666 0
0.561729 -0.733657 0
0.564809 -0.620171 0
0.575922 -0.457893 0
0.597355 -0.285701 0
0.632073 -0.130328 0
0.678881 -0.006669 0
0.732525 0.081134 0
0.780860 0.142530 0
0.814294 0.190276 0
0.836729 0.224183 0
0.856463 0.236930 0
0.872760 0.231607 0
0.874444 0.222341 0
0.853974 0.219416 0
0.815367 0.220664 0
0.772183 0.216231 0
0.734598 0.198568 0
0.707334 0.167445 0
0.691626 0.126972 0