# vtk DataFile Version 2.0
generated by CFD-lab course output (written by Tobias Neckel) 
ASCII

DATASET STRUCTURED_GRID
DIMENSIONS  101 21 1 
POINTS 2121 float

0.000000 0.000000 0
0.100000 0.000000 0
0.200000 0.000000 0
0.300000 0.000000 0
0.400000 0.000000 0
0.500000 0.000000 0
0.600000 0.000000 0
0.700000 0.000000 0
0.800000 0.000000 0
0.900000 0.000000 0
1.000000 0.000000 0
1.100000 0.000000 0
1.200000 0.000000 0
1.300000 0.000000 0
1.400000 0.000000 0
1.500000 0.000000 0
1.600000 0.000000 0
1.700000 0.000000 0
1.800000 0.000000 0
1.900000 0.000000 0
2.000000 0.000000 0
2.100000 0.000000 0
2.200000 0.000000 0
2.300000 0.000000 0
2.400000 0.000000 0
2.500000 0.000000 0
2.600000 0.000000 0
2.700000 0.000000 0
2.800000 0.000000 0
2.900000 0.000000 0
3.000000 0.000000 0
3.100000 0.000000 0
3.200000 0.000000 0
3.300000 0.000000 0
3.400000 0.000000 0
3.500000 0.000000 0
3.600000 0.000000 0
3.700000 0.000000 0
3.800000 0.000000 0
3.900000 0.000000 0
4.000000 0.000000 0
4.100000 0.000000 0
4.200000 0.000000 0
4.300000 0.000000 0
4.400000 0.000000 0
4.500000 0.000000 0
4.600000 0.000000 0
4.700000 0.000000 0
4.800000 0.000000 0
4.900000 0.000000 0
5.000000 0.000000 0
5.100000 0.000000 0
5.200000 0.000000 0
5.300000 0.000000 0
5.400000 0.000000 0
5.500000 0.000000 0
5.600000 0.000000 0
5.700000 0.000000 0
5.800000 0.000000 0
5.900000 0.000000 0
6.000000 0.000000 0
6.100000 0.000000 0
6.200000 0.000000 0
6.300000 0.000000 0
6.400000 0.000000 0
6.500000 0.000000 0
6.600000 0.000000 0
6.700000 0.000000 0
6.800000 0.000000 0
6.900000 0.000000 0
7.000000 0.000000 0
7.100000 0.000000 0
7.200000 0.000000 0
7.300000 0.000000 0
7.400000 0.000000 0
7.500000 0.000000 0
7.600000 0.000000 0
7.700000 0.000000 0
7.800000 0.000000 0
7.900000 0.000000 0
8.000000 0.000000 0
8.100000 0.000000 0
8.200000 0.000000 0
8.300000 0.000000 0
8.400000 0.000000 0
8.500000 0.000000 0
8.600000 0.000000 0
8.700000 0.000000 0
8.800000 0.000000 0
8.900000 0.000000 0
9.000000 0.000000 0
9.100000 0.000000 0
9.200000 0.000000 0
9.300000 0.000000 0
9.400000 0.000000 0
9.500000 0.000000 0
9.600000 0.000000 0
9.700000 0.000000 0
9.800000 0.000000 0
9.900000 0.000000 0
10.000000 0.000000 0
0.000000 0.100000 0
0.100000 0.100000 0
0.200000 0.100000 0
0.300000 0.100000 0
0.400000 0.100000 0
0.500000 0.100000 0
0.600000 0.100000 0
0.700000 0.100000 0
0.800000 0.100000 0
0.900000 0.100000 0
1.000000 0.100000 0
1.100000 0.100000 0
1.200000 0.100000 0
1.300000 0.100000 0
1.400000 0.100000 0
1.500000 0.100000 0
1.600000 0.100000 0
1.700000 0.100000 0
1.800000 0.100000 0
1.900000 0.100000 0
2.000000 0.100000 0
2.100000 0.100000 0
2.200000 0.100000 0
2.300000 0.100000 0
2.400000 0.100000 0
2.500000 0.100000 0
2.600000 0.100000 0
2.700000 0.100000 0
2.800000 0.100000 0
2.900000 0.100000 0
3.000000 0.100000 0
3.100000 0.100000 0
3.200000 0.100000 0
3.300000 0.100000 0
3.400000 0.100000 0
3.500000 0.100000 0
3.600000 0.100000 0
3.700000 0.100000 0
3.800000 0.100000 0
3.900000 0.100000 0
4.000000 0.100000 0
4.100000 0.100000 0
4.200000 0.100000 0
4.300000 0.100000 0
4.400000 0.100000 0
4.500000 0.100000 0
4.600000 0.100000 0
4.700000 0.100000 0
4.800000 0.100000 0
4.900000 0.100000 0
5.000000 0.100000 0
5.100000 0.100000 0
5.200000 0.100000 0
5.300000 0.100000 0
5.400000 0.100000 0
5.500000 0.100000 0
5.600000 0.100000 0
5.700000 0.100000 0
5.800000 0.100000 0
5.900000 0.100000 0
6.000000 0.100000 0
6.100000 0.100000 0
6.200000 0.100000 0
6.300000 0.100000 0
6.400000 0.100000 0
6.500000 0.100000 0
6.600000 0.100000 0
6.700000 0.100000 0
6.800000 0.100000 0
6.900000 0.100000 0
7.000000 0.100000 0
7.100000 0.100000 0
7.200000 0.100000 0
7.300000 0.100000 0
7.400000 0.100000 0
7.500000 0.100000 0
7.600000 0.100000 0
7.700000 0.100000 0
7.800000 0.100000 0
7.900000 0.100000 0
8.000000 0.100000 0
8.100000 0.100000 0
8.200000 0.100000 0
8.300000 0.100000 0
8.400000 0.100000 0
8.500000 0.100000 0
8.600000 0.100000 0
8.700000 0.100000 0
8.800000 0.100000 0
8.900000 0.100000 0
9.000000 0.100000 0
9.100000 0.100000 0
9.200000 0.100000 0
9.300000 0.100000 0
9.400000 0.100000 0
9.500000 0.100000 0
9.600000 0.100000 0
9.700000 0.100000 0
9.800000 0.100000 0
9.900000 0.100000 0
10.000000 0.100000 0
0.000000 0.200000 0
0.100000 0.200000 0
0.200000 0.200000 0
0.300000 0.200000 0
0.400000 0.200000 0
0.500000 0.200000 0
0.600000 0.200000 0
0.700000 0.200000 0
0.800000 0.200000 0
0.900000 0.200000 0
1.000000 0.200000 0
1.100000 0.200000 0
1.200000 0.200000 0
1.300000 0.200000 0
1.400000 0.200000 0
1.500000 0.200000 0
1.600000 0.200000 0
1.700000 0.200000 0
1.800000 0.200000 0
1.900000 0.200000 0
2.000000 0.200000 0
2.100000 0.200000 0
2.200000 0.200000 0
2.300000 0.200000 0
2.400000 0.200000 0
2.500000 0.200000 0
2.600000 0.200000 0
2.700000 0.200000 0
2.800000 0.200000 0
2.900000 0.200000 0
3.000000 0.200000 0
3.100000 0.200000 0
3.200000 0.200000 0
3.300000 0.200000 0
3.400000 0.200000 0
3.500000 0.200000 0
3.600000 0.200000 0
3.700000 0.200000 0
3.800000 0.200000 0
3.900000 0.200000 0
4.000000 0.200000 0
4.100000 0.200000 0
4.200000 0.200000 0
4.300000 0.200000 0
4.400000 0.200000 0
4.500000 0.200000 0
4.600000 0.200000 0
4.700000 0.200000 0
4.800000 0.200000 0
4.900000 0.200000 0
5.000000 0.200000 0
5.100000 0.200000 0
5.200000 0.200000 0
5.300000 0.200000 0
5.400000 0.200000 0
5.500000 0.200000 0
5.600000 0.200000 0
5.700000 0.200000 0
5.800000 0.200000 0
5.900000 0.200000 0
6.000000 0.200000 0
6.100000 0.200000 0
6.200000 0.200000 0
6.300000 0.200000 0
6.400000 0.200000 0
6.500000 0.200000 0
6.600000 0.200000 0
6.700000 0.200000 0
6.800000 0.200000 0
6.900000 0.200000 0
7.000000 0.200000 0
7.100000 0.200000 0
7.200000 0.200000 0
7.300000 0.200000 0
7.400000 0.200000 0
7.500000 0.200000 0
7.600000 0.200000 0
7.700000 0.200000 0
7.800000 0.200000 0
7.900000 0.200000 0
8.000000 0.200000 0
8.100000 0.200000 0
8.200000 0.200000 0
8.300000 0.200000 0
8.400000 0.200000 0
8.500000 0.200000 0
8.600000 0.200000 0
8.700000 0.200000 0
8.800000 0.200000 0
8.900000 0.200000 0
9.000000 0.200000 0
9.100000 0.200000 0
9.200000 0.200000 0
9.300000 0.200000 0
9.400000 0.200000 0
9.500000 0.200000 0
9.600000 0.200000 0
9.700000 0.200000 0
9.800000 0.200000 0
9.900000 0.200000 0
10.000000 0.200000 0
0.000000 0.300000 0
0.100000 0.300000 0
0.200000 0.300000 0
0.300000 0.300000 0
0.400000 0.300000 0
0.500000 0.300000 0
0.600000 0.300000 0
0.700000 0.300000 0
0.800000 0.300000 0
0.900000 0.300000 0
1.000000 0.300000 0
1.100000 0.300000 0
1.200000 0.300000 0
1.300000 0.300000 0
1.400000 0.300000 0
1.500000 0.300000 0
1.600000 0.300000 0
1.700000 0.300000 0
1.800000 0.300000 0
1.900000 0.300000 0
2.000000 0.300000 0
2.100000 0.300000 0
2.200000 0.300000 0
2.300000 0.300000 0
2.400000 0.300000 0
2.500000 0.300000 0
2.600000 0.300000 0
2.700000 0.300000 0
2.800000 0.300000 0
2.900000 0.300000 0
3.000000 0.300000 0
3.100000 0.300000 0
3.200000 0.300000 0
3.300000 0.300000 0
3.400000 0.300000 0
3.500000 0.300000 0
3.600000 0.300000 0
3.700000 0.300000 0
3.800000 0.300000 0
3.900000 0.300000 0
4.000000 0.300000 0
4.100000 0.300000 0
4.200000 0.300000 0
4.300000 0.300000 0
4.400000 0.300000 0
4.500000 0.300000 0
4.600000 0.300000 0
4.700000 0.300000 0
4.800000 0.300000 0
4.900000 0.300000 0
5.000000 0.300000 0
5.100000 0.300000 0
5.200000 0.300000 0
5.300000 0.300000 0
5.400000 0.300000 0
5.500000 0.300000 0
5.600000 0.300000 0
5.700000 0.300000 0
5.800000 0.300000 0
5.900000 0.300000 0
6.000000 0.300000 0
6.100000 0.300000 0
6.200000 0.300000 0
6.300000 0.300000 0
6.400000 0.300000 0
6.500000 0.300000 0
6.600000 0.300000 0
6.700000 0.300000 0
6.800000 0.300000 0
6.900000 0.300000 0
7.000000 0.300000 0
7.100000 0.300000 0
7.200000 0.300000 0
7.300000 0.300000 0
7.400000 0.300000 0
7.500000 0.300000 0
7.600000 0.300000 0
7.700000 0.300000 0
7.800000 0.300000 0
7.900000 0.300000 0
8.000000 0.300000 0
8.100000 0.300000 0
8.200000 0.300000 0
8.300000 0.300000 0
8.400000 0.300000 0
8.500000 0.300000 0
8.600000 0.300000 0
8.700000 0.300000 0
8.800000 0.300000 0
8.900000 0.300000 0
9.000000 0.300000 0
9.100000 0.300000 0
9.200000 0.300000 0
9.300000 0.300000 0
9.400000 0.300000 0
9.500000 0.300000 0
9.600000 0.300000 0
9.700000 0.300000 0
9.800000 0.300000 0
9.900000 0.300000 0
10.000000 0.300000 0
0.000000 0.400000 0
0.100000 0.400000 0
0.200000 0.400000 0
0.300000 0.400000 0
0.400000 0.400000 0
0.500000 0.400000 0
0.600000 0.400000 0
0.700000 0.400000 0
0.800000 0.400000 0
0.900000 0.400000 0
1.000000 0.400000 0
1.100000 0.400000 0
1.200000 0.400000 0
1.300000 0.400000 0
1.400000 0.400000 0
1.500000 0.400000 0
1.600000 0.400000 0
1.700000 0.400000 0
1.800000 0.400000 0
1.900000 0.400000 0
2.000000 0.400000 0
2.100000 0.400000 0
2.200000 0.400000 0
2.300000 0.400000 0
2.400000 0.400000 0
2.500000 0.400000 0
2.600000 0.400000 0
2.700000 0.400000 0
2.800000 0.400000 0
2.900000 0.400000 0
3.000000 0.400000 0
3.100000 0.400000 0
3.200000 0.400000 0
3.300000 0.400000 0
3.400000 0.400000 0
3.500000 0.400000 0
3.600000 0.400000 0
3.700000 0.400000 0
3.800000 0.400000 0
3.900000 0.400000 0
4.000000 0.400000 0
4.100000 0.400000 0
4.200000 0.400000 0
4.300000 0.400000 0
4.400000 0.400000 0
4.500000 0.400000 0
4.600000 0.400000 0
4.700000 0.400000 0
4.800000 0.400000 0
4.900000 0.400000 0
5.000000 0.400000 0
5.100000 0.400000 0
5.200000 0.400000 0
5.300000 0.400000 0
5.400000 0.400000 0
5.500000 0.400000 0
5.600000 0.400000 0
5.700000 0.400000 0
5.800000 0.400000 0
5.900000 0.400000 0
6.000000 0.400000 0
6.100000 0.400000 0
6.200000 0.400000 0
6.300000 0.400000 0
6.400000 0.400000 0
6.500000 0.400000 0
6.600000 0.400000 0
6.700000 0.400000 0
6.800000 0.400000 0
6.900000 0.400000 0
7.000000 0.400000 0
7.100000 0.400000 0
7.200000 0.400000 0
7.300000 0.400000 0
7.400000 0.400000 0
7.500000 0.400000 0
7.600000 0.400000 0
7.700000 0.400000 0
7.800000 0.400000 0
7.900000 0.400000 0
8.000000 0.400000 0
8.100000 0.400000 0
8.200000 0.400000 0
8.300000 0.400000 0
8.400000 0.400000 0
8.500000 0.400000 0
8.600000 0.400000 0
[...]
POINT_DATA 2121 

VECTORS velocity float
0.500000 0.000000 0
0.000059 0.000000 0
0.000187 0.000000 0
0.000395 0.000000 0
0.000670 0.000000 0
0.000982 0.000000 0
0.001289 0.000000 0
0.001541 0.000000 0
0.001694 0.000000 0
0.001749 0.000000 0
0.001662 0.000000 0
0.001408 0.000000 0
0.000995 0.000000 0
0.000426 0.000000 0
-0.000330 0.000000 0
-0.001310 0.000000 0
-0.002550 0.000000 0
-0.004038 0.000000 0
-0.005586 0.000000 0
-0.006993 0.000000 0
-0.007469 0.000000 0
-0.006726 0.000000 0
-0.004733 0.000000 0
-0.001824 0.000000 0
0.001116 0.000000 0
0.003681 0.000000 0
0.005517 0.000000 0
0.005529 0.000000 0
0.010299 0.000000 0
0.032137 0.000000 0
0.026405 0.000000 0
0.005930 0.000000 0
-0.006134 0.000000 0
-0.008215 0.000000 0
0.001328 0.000000 0
0.005710 0.000000 0
0.005759 0.000000 0
0.002680 0.000000 0
-0.002030 0.000000 0
-0.007557 0.000000 0
-0.013281 0.000000 0
-0.017323 0.000000 0
-0.017643 0.000000 0
-0.014125 0.000000 0
-0.009642 0.000000 0
-0.011377 0.000000 0
-0.012274 0.000000 0
-0.013025 0.000000 0
-0.014409 0.000000 0
-0.016325 0.000000 0
-0.017703 0.000000 0
-0.017485 0.000000 0
-0.015468 0.000000 0
-0.012178 0.000000 0
-0.008349 0.000000 0
-0.004537 0.000000 0
-0.000855 0.000000 0
0.003230 0.000000 0
0.008632 0.000000 0
0.015416 0.000000 0
0.021595 0.000000 0
0.024650 0.000000 0
0.022850 0.000000 0
0.017699 0.000000 0
0.010896 0.000000 0
0.006581 0.000000 0
0.019782 0.000000 0
0.023641 0.000000 0
0.016279 0.000000 0
0.005651 0.000000 0
-0.002477 0.000000 0
-0.008678 0.000000 0
-0.006622 0.000000 0
-0.007575 0.000000 0
-0.005082 0.000000 0
-0.002209 0.000000 0
-0.000388 0.000000 0
0.000703 0.000000 0
0.001495 0.000000 0
0.002539 0.000000 0
0.005112 0.000000 0
0.007376 0.000000 0
0.007178 0.000000 0
0.004543 0.000000 0
0.001175 0.000000 0
-0.001629 0.000000 0
-0.003645 0.000000 0
-0.005131 0.000000 0
-0.006248 0.000000 0
-0.007059 0.000000 0
-0.007655 0.000000 0
-0.008007 0.000000 0
-0.008105 0.000000 0
-0.007994 0.000000 0
-0.007787 0.000000 0
-0.007496 0.000000 0
-0.007084 0.000000 0
-0.006686 0.000000 0
-0.006335 0.000000 0
-0.005851 0.000000 0
-0.005744 0.000000 0
1.000000 -0.004771 0
1.010201 -0.014474 0
1.030491 -0.024220 0
1.060663 -0.033446 0
1.100131 -0.041404 0
1.147491 -0.046847 0
1.199653 -0.048021 0
1.251431 -0.042921 0
1.293867 -0.031133 0
1.319934 -0.014868 0
1.326827 0.002766 0
1.315173 0.019195 0
1.287650 0.032708 0
1.247890 0.042052 0
1.200581 0.045985 0
1.151693 0.043198 0
1.108774 0.032629 0
1.080666 0.014270 0
1.075700 -0.010152 0
1.101198 -0.035432 0
1.154750 -0.053351 0
1.222819 -0.057087 0
1.286883 -0.044023 0
1.326468 -0.017902 0
1.331549 0.013303 0
1.303026 0.043672 0
1.245935 0.064712 0
1.168227 0.077801 0
1.066116 0.192499 0
0.889523 0.383724 0
0.664984 0.349971 0
0.549433 0.099490 0
0.607920 -0.106248 0
0.544836 -0.139987 0
0.409019 -0.043850 0
0.311906 0.043278 0
0.229940 0.073875 0
0.179363 0.049560 0
0.173366 -0.009107 0
0.210778 -0.075326 0
0.293821 -0.135233 0
0.421564 -0.172207 0
0.585998 -0.174571 0
0.762723 -0.144798 0
0.915061 -0.105967 0
1.025285 -0.092172 0
1.117882 -0.093522 0
1.202691 -0.091317 0
1.283610 -0.094021 0
1.369742 -0.102632 0
1.467579 -0.110820 0
1.573785 -0.110483 0
1.675756 -0.098976 0
1.762720 -0.078908 0
1.828065 -0.054559 0
1.869966 -0.029148 0
1.888167 -0.003072 0
1.881322 0.026636 0
1.844865 0.064607 0
1.773190 0.110875 0
1.665977 0.154655 0
1.531251 0.179142 0
1.383887 0.173717 0
1.244840 0.139006 0
1.131200 0.085958 0
1.039441 0.093132 0
0.938579 0.203763 0
0.809800 0.277396 0
0.688667 0.214107 0
0.617217 0.083147 0
0.604875 -0.036594 0
0.603299 -0.097662 0
0.557993 -0.104559 0
0.558634 -0.101576 0
0.624720 -0.080789 0
0.659388 -0.042771 0
0.661461 -0.014846 0
0.641591 0.001246 0
0.613879 0.010954 0
0.573579 0.024452 0
0.507989 0.055435 0
0.417593 0.093465 0
0.322246 0.106482 0
0.250719 0.082845 0
0.218426 0.039774 0
0.221165 0.000312 0
0.248331 -0.027537 0
0.291636 -0.046356 0
0.345483 -0.058371 0
0.406089 -0.065384 0
0.470515 -0.069238 0
0.537355 -0.070373 0
0.605969 -0.068925 0
0.673632 -0.065590 0
0.738272 -0.061405 0
0.797791 -0.055737 0
0.850528 -0.048108 0
0.894929 -0.039867 0
0.929729 -0.031161 0
0.954158 -0.019128 0
0.965210 -0.011590 0
1.000000 -0.010188 0
1.010551 -0.030473 0
1.031506 -0.050452 0
1.062976 -0.069630 0
1.105131 -0.086819 0
1.157763 -0.099513 0
1.218492 -0.103931 0
1.283785 -0.094207 0
1.337178 -0.068496 0
1.368383 -0.032952 0
1.375456 0.004767 0
1.360919 0.039182 0
1.328975 0.067288 0
1.283273 0.087072 0
1.228258 0.096199 0
1.169460 0.091808 0
1.114990 0.071028 0
1.076205 0.033074 0
1.062948 -0.020533 0
1.093305 -0.079051 0
1.165695 -0.121623 0
1.258103 -0.132136 0
1.349256 -0.103652 0
1.407588 -0.044670 0
1.417731 0.023438 0
1.386908 0.085610 0
1.329222 0.134795 0
1.248551 0.179815 0
1.144331 0.278700 0
1.101874 0.401128 0
1.127652 0.340086 0
1.084051 0.057060 0
0.907468 0.004593 0
0.628451 0.198897 0
0.421654 0.232926 0
0.333525 0.179075 0
0.284736 0.132539 0
0.284961 0.056569 0
0.317504 -0.031420 0
0.337490 -0.120462 0
0.349088 -0.210794 0
0.385082 -0.292185 0
0.475051 -0.341169 0
0.621495 -0.329073 0
0.807048 -0.262573 0
0.969002 -0.202834 0
1.062144 -0.177418 0
1.129854 -0.165741 0
1.184295 -0.167065 0
1.242261 -0.183983 0
1.314011 -0.204058 0
1.396978 -0.208192 0
1.481365 -0.188949 0
1.555539 -0.152323 0
1.612099 -0.107260 0
1.650584 -0.060116 0
1.669501 -0.011369 0
1.668364 0.043290 0
1.646355 0.108120 0
1.604399 0.178877 0
1.545172 0.241929 0
1.471636 0.282081 0
1.386789 0.286403 0
1.298064 0.252680 0
1.214893 0.205394 0
1.123358 0.192617 0
1.079725 0.229637 0
1.114844 0.249909 0
1.164219 0.192581 0
1.177978 0.083792 0
1.144806 0.013919 0
1.060928 0.046884 0
0.963642 0.044668 0
0.865804 -0.066723 0
0.711612 -0.100750 0
0.606882 -0.036737 0
0.558889 0.017803 0
0.514899 0.047588 0
0.483536 0.068017 0
0.442875 0.105896 0
0.376997 0.155992 0
0.310129 0.185749 0
0.270925 0.166881 0
0.266830 0.103826 0
0.287364 0.029559 0
0.320239 -0.029900 0
0.358966 -0.070466 0
0.401552 -0.097147 0
0.448370 -0.114449 0
0.498604 -0.125029 0
0.551197 -0.131263 0
0.608012 -0.135451 0
0.669268 -0.136274 0
0.732717 -0.132301 0
0.793338 -0.124157 0
0.846556 -0.112254 0
0.893177 -0.097137 0
0.931574 -0.079199 0
0.961388 -0.059227 0
0.981223 -0.035479 0
0.991231 -0.022050 0
1.000000 -0.015314 0
1.009634 -0.045971 0
1.029713 -0.076643 0
1.060930 -0.107070 0
1.104846 -0.136190 0
1.163795 -0.160206 0
1.236653 -0.174041 0
1.331742 -0.161606 0
1.404955 -0.115730 0
1.442276 -0.053144 0
1.446112 0.010231 0
1.423171 0.065678 0
1.381873 0.110355 0
1.324512 0.142769 0
1.254734 0.159799 0
1.177588 0.156465 0
1.099865 0.125884 0
1.042826 0.066312 0
0.994656 -0.027253 0
1.033210 -0.138180 0
1.124438 -0.218150 0
1.242508 -0.240649 0
1.368015 -0.193509 0
1.460553 -0.086378 0
1.495926 0.033982 0
1.473278 0.132180 0
1.405856 0.203067 0
1.317484 0.262691 0
1.233889 0.339175 0
1.208128 0.400402 0
1.224019 0.367793 0
1.133241 0.319674 0
0.855209 0.349352 0
0.705619 0.345827 0
0.681021 0.251075 0
0.620357 0.180195 0
0.560638 0.122438 0
0.538631 0.016790 0
0.525720 -0.061639 0
0.472733 -0.106913 0
0.407181 -0.182829 0
0.386450 -0.298174 0
0.418455 -0.410989 0
0.497253 -0.476799 0
0.642508 -0.453479 0
0.841099 -0.347273 0
0.984938 -0.254380 0
1.041184 -0.213474 0
1.056574 -0.206434 0
1.076333 -0.232354 0
1.113151 -0.265544 0
1.161746 -0.277843 0
1.218141 -0.257543 0
1.273482 -0.209648 0
1.317243 -0.149609 0
1.352712 -0.086555 0
1.371017 -0.020857 0
1.372661 0.049776 0
1.359931 0.128567 0
1.337395 0.212054 0
1.303907 0.287414 0
1.258863 0.337521 0
1.205605 0.347286 0
1.145414 0.310901 0
1.098523 0.260663 0
1.078709 0.228298 0
1.098401 0.212276 0
1.167703 0.192902 0
1.245333 0.150974 0
1.281808 0.102560 0
1.256756 0.080456 0
1.208371 0.083504 0
1.187412 0.090567 0
1.098531 0.150455 0
0.915854 0.178136 0
0.749611 0.109955 0
0.591804 0.077139 0
0.493765 0.076601 0
0.463176 0.082981 0
0.436262 0.130994 0
0.402665 0.188183 0
0.388937 0.199540 0
0.404979 0.149784 0
0.435258 0.066408 0
0.463571 -0.013633 0
0.487722 -0.071286 0
0.511397 -0.108847 0
0.537220 -0.135758 0
0.566899 -0.155421 0
0.599392 -0.168209 0
0.633159 -0.178644 0
0.671754 -0.188441 0
0.719367 -0.193628 0
0.777060 -0.189657 0
0.836201 -0.175242 0
0.887696 -0.155574 0
0.930786 -0.133124 0
0.964891 -0.108076 0
0.990360 -0.080808 0
1.007227 -0.048969 0
1.015523 -0.031126 0
1.000000 -0.019815 0
1.007426 -0.060178 0
1.025323 -0.101747 0
1.054109 -0.144763 0
1.097600 -0.189683 0
1.161503 -0.231319 0
1.247701 -0.271877 0
1.411002 -0.262507 0
1.509504 -0.179028 0
1.547367 -0.074108 0
1.546707 0.023874 0
1.517410 0.103423 0
1.462076 0.165946 0
1.385564 0.214212 0
1.294410 0.243124 0
1.185835 0.246676 0
1.051786 0.205790 0
1.047145 0.138283 0
0.883875 -0.010919 0
0.863659 -0.208834 0
0.902649 -0.330922 0
1.009672 -0.375713 0
1.188600 -0.321698 0
1.330491 -0.172582 0
1.423050 0.010713 0
1.473945 0.175680 0
1.465265 0.290588 0
1.410430 0.351782 0
1.336125 0.388055 0
1.285040 0.410997 0
1.248425 0.414973 0
1.170613 0.425871 0
1.099567 0.432215 0
1.108878 0.373084 0
1.123680 0.318188 0
0.962943 0.299457 0
0.774613 0.214263 0
0.614042 0.091486 0
0.452412 0.034475 0
0.324663 -0.001925 0
0.281198 -0.124514 0
0.329189 -0.303463 0
0.412208 -0.451976 0
0.486348 -0.553131 0
0.541444 -0.606424 0
0.656657 -0.545270 0
0.838209 -0.377510 0
0.937439 -0.237383 0
0.932917 -0.202220 0
0.901873 -0.240567 0
0.876467 -0.289477 0
0.864188 -0.313187 0
0.879849 -0.300691 0
0.928228 -0.251432 0
0.995169 -0.186496 0
1.058198 -0.113895 0
1.099621 -0.031323 0
1.108937 0.054371 0
1.098639 0.143381 0
1.090629 0.234898 0
1.078429 0.320458 0
1.059352 0.380380 0
1.029695 0.399850 0
0.992470 0.359760 0
0.988431 0.272097 0
1.035615 0.192737 0
1.110934 0.140642 0
1.200501 0.102978 0
1.289127 0.078477 0
1.342910 0.072369 0
1.348879 0.087357 0
1.322803 0.116229 0
1.269092 0.154509 0
1.188870 0.204838 0
1.137368 0.248172 0
1.033240 0.287315 0
0.889567 0.273652 0
0.806230 0.176218 0
0.753848 0.125524 0
0.661332 0.166410 0
0.595812 0.203320 0
0.582528 0.183439 0
0.594527 0.120563 0
0.603235 0.045236 0
0.600202 -0.022902 0
0.595009 -0.077723 0
0.600521 -0.119962 0
0.618954 -0.152646 0
0.645300 -0.176617 0
0.673747 -0.191287 0
0.697135 -0.203624 0
0.716954 -0.221656 0
0.743884 -0.241577 0
0.787218 -0.249132 0
0.846071 -0.234791 0
0.907630 -0.206837 0
0.961521 -0.174328 0
0.998040 -0.138771 0
1.015770 -0.101561 0
1.023519 -0.060639 0
1.027247 -0.038012 0
1.000000 -0.022736 0
1.001848 -0.071290 0
1.016668 -0.123326 0
1.038018 -0.179346 0
1.076714 -0.243583 0
1.135606 -0.310307 0
1.236250 -0.423540 0
1.534078 -0.423407 0
1.625635 -0.252094 0
1.637202 -0.090346 0
1.625284 0.040190 0
1.600537 0.150309 0
1.552092 0.242200 0
1.470863 0.310436 0
1.375148 0.359528 0
1.246734 0.399089 0
1.079305 0.264574 0
0.693419 0.234223 0
0.333852 0.156232 0
0.390252 -0.156955 0
0.334718 -0.364164 0
0.353560 -0.526601 0
0.581614 -0.514329 0
0.883056 -0.320828 0
1.117472 -0.109472 0
1.246223 0.089965 0
1.328710 0.266582 0
1.377421 0.391830 0
1.371471 0.464565 0
1.329796 0.488102 0
1.270664 0.482220 0
1.206290 0.468533 0
1.168812 0.411088 0
1.142962 0.321713 0
1.020543 0.397010 0
0.847223 0.529262 0
0.717247 0.471337 0
0.599760 0.338990 0
0.459828 0.227739 0
0.370567 0.064297 0
0.398260 -0.187358 0
0.506438 -0.429187 0
0.608953 -0.568152 0
0.689059 -0.606040 0
0.711347 -0.623793 0
0.649862 -0.644044 0
0.670181 -0.535168 0
0.798133 -0.308188 0
0.879449 -0.170874 0
0.844110 -0.175910 0
0.752053 -0.227865 0
0.684074 -0.281232 0
0.662159 -0.321590 0
0.684280 -0.324974 0
0.744591 -0.279585 0
0.809905 -0.191013 0
0.878954 -0.071601 0
0.952055 0.050754 0
0.995505 0.146871 0
1.000021 0.232260 0
1.001954 0.318687 0
1.007694 0.386253 0
0.982103 0.414167 0
0.917828 0.352162 0
0.897641 0.217516 0
0.885879 0.105794 0
0.960223 0.047389 0
1.115664 0.014709 0
1.235197 0.008565 0
1.316298 0.042808 0
1.341750 0.100564 0
1.330287 0.163292 0
1.292639 0.224502 0
1.241271 0.282181 0
1.193554 0.333768 0
1.157539 0.357758 0
1.169313 0.304152 0
1.118316 0.212323 0
0.927627 0.227883 0
0.783166 0.289033 0
0.736056 0.266990 0
0.733506 0.200828 0
0.729426 0.129080 0
0.718067 0.060736 0
0.711539 -0.005404 0
0.715793 -0.071603 0
0.730844 -0.132789 0
0.753948 -0.180533 0
0.779754 -0.210211 0
0.808052 -0.220041 0
0.842188 -0.221848 0
0.871923 -0.235188 0
0.886092 -0.263890 0
0.900954 -0.291841 0
0.934541 -0.295651 0
0.982853 -0.271021 0
1.035780 -0.223531 0
1.078948 -0.162323 0
1.094807 -0.106283 0
1.088342 -0.060443 0
1.086849 -0.038177 0
1.000000 -0.021660 0
0.998271 -0.076844 0
1.008850 -0.137918 0
1.006536 -0.204810 0
1.038324 -0.287272 0
1.064348 -0.390856 0
1.214710 -0.670349 0
1.580320 -0.651890 0
1.510697 -0.282152 0
1.429769 -0.073757 0
1.420316 0.060541 0
1.411726 0.176616 0
1.473118 0.295620 0
1.404439 0.391156 0
1.381383 0.467253 0
1.356104 0.542520 0
1.203780 0.759104 0
0.827203 0.883735 0
0.697255 0.292248 0
0.240215 -0.209701 0
-0.071956 -0.294230 0
-0.167104 -0.622609 0
-0.079504 -0.851195 0
0.229885 -0.708440 0
0.638816 -0.352453 0
0.903690 -0.035557 0
1.067490 0.159390 0
1.162498 0.309021 0
1.241183 0.435682 0
1.282378 0.511805 0
1.277831 0.538480 0
1.239222 0.527725 0
1.181689 0.495543 0
1.062848 0.521353 0
0.876311 0.613928 0
0.804604 0.602753 0
0.801535 0.461725 0
0.791120 0.348903 0
0.762353 0.263666 0
0.710600 0.059641 0
0.692335 -0.260388 0
0.730667 -0.514159 0
0.806644 -0.634602 0
0.842021 -0.655531 0
0.887648 -0.567232 0
0.871119 -0.504110 0
0.731626 -0.525786 0
0.657618 -0.446657 0
0.718072 -0.248204 0
0.777255 -0.113177 0
0.771085 -0.129447 0
0.734147 -0.223300 0
0.693343 -0.300904 0
0.672891 -0.333869 0
0.686056 -0.312127 0
0.719296 -0.248265 0
0.759679 -0.173479 0
0.822817 -0.062185 0
0.913318 0.095411 0
0.983901 0.228444 0
0.997087 0.312780 0
0.973927 0.400228 0
0.972193 0.489714 0
0.986872 0.444219 0
0.830320 0.304044 0
0.632049 0.130155 0
0.618527 -0.089143 0
0.792848 -0.171997 0
1.020420 -0.122158 0
1.158675 -0.034184 0
1.203476 0.073369 0
1.210705 0.165341 0
1.196326 0.243527 0
1.184823 0.303925 0
1.184758 0.331907 0
1.168733 0.311560 0
1.108792 0.312878 0
0.978371 0.417907 0
0.842626 0.460676 0
0.822064 0.357983 0
0.839111 0.252984 0
0.839758 0.190073 0
0.826825 0.136004 0
0.828295 0.063127 0
0.854809 -0.020625 0
0.885201 -0.097025 0
0.909625 -0.158114 0
0.930139 -0.201553 0
0.948375 -0.230718 0
0.967594 -0.253717 0
0.990712 -0.267491 0
1.009664 -0.265556 0
1.006394 -0.270605 0
0.968198 -0.297578 0
0.946409 -0.316686 0
0.965633 -0.308073 0
1.027193 -0.270420 0
1.094110 -0.197795 0
1.146558 -0.110952 0
1.175314 -0.052678 0
1.186191 -0.033534 0
1.000000 -0.021005 0
0.995344 -0.080140 0
1.000178 -0.131593 0
0.980044 -0.208822 0
0.995165 -0.301397 0
0.952647 -0.486695 0
1.078367 -0.939512 0
0.776306 -0.617851 0
0.004030 0.000000 0
0.001069 0.000000 0
0.596855 0.058198 0
0.659899 0.097506 0
0.697429 0.249488 0
1.023370 0.402172 0
0.842613 0.407863 0
0.984262 0.576692 0
1.114444 0.793474 0
1.101010 0.740747 0
0.997862 0.743220 0
0.278159 0.612255 0
0.035042 0.043155 0
-0.038797 -0.519053 0
-0.145144 -0.911318 0
-0.097706 -1.039147 0
0.170391 -0.783276 0
0.552641 -0.338708 0
0.820589 0.007775 0
0.977634 0.218138 0
1.078270 0.344687 0
1.157902 0.451455 0
1.219918 0.525377 0
1.242957 0.564676 0
1.224821 0.587463 0
1.170092 0.627092 0
1.143081 0.655255 0
1.154739 0.604038 0
1.109338 0.484821 0
1.001866 0.378170 0
0.910683 0.308257 0
0.865225 0.134313 0
0.774078 -0.207428 0
0.639460 -0.543500 0
0.628425 -0.679510 0
0.643535 -0.687049 0
0.683474 -0.652896 0
0.801216 -0.488027 0
0.833124 -0.321672 0
0.740439 -0.294641 0
0.690821 -0.290518 0
0.777185 -0.228929 0
0.837639 -0.184764 0
0.769120 -0.203497 0
0.660980 -0.260341 0
0.600602 -0.317693 0
0.601061 -0.325997 0
0.644166 -0.264642 0
0.679044 -0.175127 0
0.691428 -0.102890 0
0.754174 -0.014218 0
0.865719 0.148485 0
0.951408 0.328657 0
0.990350 0.411144 0
1.011430 0.401219 0
0.949194 0.494033 0
0.778196 0.572337 0
0.698232 0.317586 0
0.642757 -0.113411 0
0.588507 -0.387185 0
0.714537 -0.357262 0
0.876078 -0.140247 0
1.003220 0.048535 0
1.061709 0.170444 0
1.068405 0.250386 0
1.040123 0.293752 0
0.995828 0.349860 0
0.939171 0.433726 0
0.856166 0.494516 0
0.827338 0.478493 0
0.917395 0.384193 0
0.990577 0.292552 0
0.989485 0.249300 0
0.968626 0.213117 0
0.961951 0.140547 0
0.973639 0.032755 0
0.992319 -0.062306 0
1.010247 -0.126415 0
1.027151 -0.177724 0
1.044007 -0.219279 0
1.060289 -0.247662 0
1.071468 -0.262375 0
1.071239 -0.263914 0
1.063290 -0.250866 0
1.050710 -0.222420 0
1.003521 -0.231851 0
0.903876 -0.293081 0
0.819930 -0.351801 0
0.842603 -0.352004 0
0.923688 -0.281685 0
1.013428 -0.187484 0
1.079150 -0.100072 0
1.101882 -0.057093 0
1.000000 -0.017005 0
0.999555 -0.077025 0
0.975370 -0.122621 0
0.977376 -0.199799 0
0.916166 -0.259877 0
0.885294 -0.474060 0
0.669676 -0.595552 0
0.000000 -0.006121 0
-0.666618 0.238050 0
-0.594628 0.000000 0
0.000000 0.000000 0
0.061895 0.079739 0
0.101272 -0.067850 0
0.397328 0.245973 0
0.533926 0.506361 0
0.634171 0.270688 0
0.694114 0.642356 0
0.583474 1.000317 0
0.247766 1.115098 0
0.195627 0.753119 0
0.262883 0.022726 0
0.261527 -0.442424 0
0.167790 -0.792285 0
0.058504 -1.023974 0
0.040010 -1.002800 0
0.277282 -0.685755 0
0.568986 -0.265602 0
0.815061 0.051342 0
0.957374 0.255415 0
1.042881 0.370158 0
1.124340 0.453426 0
1.189426 0.522824 0
1.228997 0.568410 0
1.249073 0.603094 0
1.267130 0.629281 0
1.255493 0.636496 0
1.186093 0.614598 0
1.087339 0.547557 0
1.036392 0.400306 0
1.069084 0.196243 0
1.073291 -0.034626 0
0.942766 -0.368510 0
0.661872 -0.638681 0
0.463875 -0.710584 0
0.414330 -0.724919 0
0.510038 -0.653765 0
0.743344 -0.465015 0
0.928519 -0.304361 0
0.963523 -0.284957 0
0.875800 -0.260001 0
0.789435 -0.121389 0
0.703379 -0.046648 0
0.628697 -0.132393 0
0.578292 -0.273957 0
0.553493 -0.355698 0
0.563080 -0.326253 0
0.583658 -0.220746 0
0.594362 -0.137320 0
0.609578 -0.078886 0
0.672932 0.031205 0
0.785121 0.188146 0
0.873052 0.340204 0
0.842388 0.530867 0
0.710156 0.677450 0
0.693917 0.555004 0
0.738712 0.265592 0
0.678223 0.020581 0
0.499765 -0.243777 0
0.396810 -0.409729 0
0.478024 -0.322866 0
0.660327 -0.112261 0
0.798455 0.100157 0
0.869010 0.265115 0
0.893628 0.376504 0
0.889209 0.432860 0
0.902109 0.451224 0
0.964802 0.424714 0
1.042650 0.356682 0
1.064865 0.297441 0
1.028949 0.285897 0
1.024390 0.274940 0
1.042425 0.217611 0
1.069487 0.130995 0
1.088789 0.032763 0
1.094460 -0.057229 0
1.104274 -0.131854 0
1.120161 -0.191869 0
1.134673 -0.234686 0
1.143015 -0.258174 0
1.142465 -0.264663 0
1.134628 -0.259309 0
1.123690 -0.245023 0
1.118357 -0.210831 0
1.123720 -0.150739 0
1.086748 -0.133091 0
0.990676 -0.246795 0
0.845445 -0.374174 0
0.778013 -0.368616 0
0.814779 -0.266409 0
0.851958 -0.141127 0
0.865609 -0.077835 0
1.000000 -0.020563 0
0.997844 -0.055514 0
0.965056 -0.109418 0
0.960205 -0.149621 0
0.869328 -0.209318 0
0.830294 -0.240208 0
0.469254 -0.143561 0
0.319664 -0.037517 0
0.000000 0.000000 0
0.000000 0.000000 0
0.000000 0.000000 0
0.000000 0.000000 0
0.079808 -0.085876 0
-0.063601 -0.030482 0
0.321691 0.171020 0
0.361352 0.416504 0
0.205548 0.844170 0
0.129550 1.187095 0
-0.077785 1.131067 0
0.243754 0.597138 0
0.433772 -0.022745 0
0.485086 -0.423960 0
0.452816 -0.708294 0
0.352038 -0.911367 0
0.263039 -1.002054 0
0.259404 -0.867683 0
0.425003 -0.530002 0
0.647755 -0.170249 0
0.854871 0.116869 0
0.992997 0.284491 0
1.064662 0.378834 0
1.135611 0.460021 0
1.198658 0.527817 0
1.240652 0.588959 0
1.258084 0.648836 0
1.254639 0.685076 0
1.255066 0.652975 0
1.282894 0.527871 0
1.327334 0.326510 0
1.343179 0.097411 0
1.335722 -0.081114 0
1.270552 -0.132084 0
1.048301 -0.200623 0
0.840299 -0.439513 0
0.693340 -0.699065 0
0.590615 -0.817047 0
0.649854 -0.740159 0
0.831266 -0.514826 0
0.948530 -0.237806 0
0.915845 -0.054848 0
0.876590 -0.012350 0
0.899048 -0.042766 0
0.931272 -0.135260 0
0.926391 -0.242496 0
0.862288 -0.310791 0
0.754984 -0.294813 0
0.632924 -0.206414 0
0.539275 -0.128815 0
0.480080 -0.092794 0
0.472824 -0.027062 0
0.501081 0.128534 0
0.522776 0.353873 0