# vtk DataFile Version 2.0
generated by CFD-lab course output (written by Tobias Neckel) 
ASCII

DATASET STRUCTURED_GRID
DIMENSIONS  101 21 1 
POINTS 2121 float

0.000000 0.000000 0
0.100000 0.000000 0
0.200000 0.000000 0
0.300000 0.000000 0
0.400000 0.000000 0
0.500000 0.000000 0
0.600000 0.000000 0
0.700000 0.000000 0
0.800000 0.000000 0
0.900000 0.000000 0
1.000000 0.000000 0
1.100000 0.000000 0
1.200000 0.000000 0
1.300000 0.000000 0
1.400000 0.000000 0
1.500000 0.000000 0
1.600000 0.000000 0
1.700000 0.000000 0
1.800000 0.000000 0
1.900000 0.000000 0
2.000000 0.000000 0
2.100000 0.000000 0
2.200000 0.000000 0
2.300000 0.000000 0
2.400000 0.000000 0
2.500000 0.000000 0
2.600000 0.000000 0
2.700000 0.000000 0
2.800000 0.000000 0
2.900000 0.000000 0
3.000000 0.000000 0
3.100000 0.000000 0
3.200000 0.000000 0
3.300000 0.000000 0
3.400000 0.000000 0
3.500000 0.000000 0
3.600000 0.000000 0
3.700000 0.000000 0
3.800000 0.000000 0
3.900000 0.000000 0
4.000000 0.000000 0
4.100000 0.000000 0
4.200000 0.000000 0
4.300000 0.000000 0
4.400000 0.000000 0
4.500000 0.000000 0
4.600000 0.000000 0
4.700000 0.000000 0
4.800000 0.000000 0
4.900000 0.000000 0
5.000000 0.000000 0
5.100000 0.000000 0
5.200000 0.000000 0
5.300000 0.000000 0
5.400000 0.000000 0
5.500000 0.000000 0
5.600000 0.000000 0
5.700000 0.000000 0
5.800000 0.000000 0
5.900000 0.000000 0
6.000000 0.000000 0
6.100000 0.000000 0
6.200000 0.000000 0
6.300000 0.000000 0
6.400000 0.000000 0
6.500000 0.000000 0
6.600000 0.000000 0
6.700000 0.000000 0
6.800000 0.000000 0
6.900000 0.000000 0
7.000000 0.000000 0
7.100000 0.000000 0
7.200000 0.000000 0
7.300000 0.000000 0
7.400000 0.000000 0
7.500000 0.000000 0
7.600000 0.000000 0
7.700000 0.000000 0
7.800000 0.000000 0
7.900000 0.000000 0
8.000000 0.000000 0
8.100000 0.000000 0
8.200000 0.000000 0
8.300000 0.000000 0
8.400000 0.000000 0
8.500000 0.000000 0
8.600000 0.000000 0
8.700000 0.000000 0
8.800000 0.000000 0
8.900000 0.000000 0
9.000000 0.000000 0
9.100000 0.000000 0
9.200000 0.000000 0
9.300000 0.000000 0
9.400000 0.000000 0
9.500000 0.000000 0
9.600000 0.000000 0
9.700000 0.000000 0
9.800000 0.000000 0
9.900000 0.000000 0
10.000000 0.000000 0
0.000000 0.100000 0
0.100000 0.100000 0
0.200000 0.100000 0
0.300000 0.100000 0
0.400000 0.100000 0
0.500000 0.100000 0
0.600000 0.100000 0
0.700000 0.100000 0
0.800000 0.100000 0
0.900000 0.100000 0
1.000000 0.100000 0
1.100000 0.100000 0
1.200000 0.100000 0
1.300000 0.100000 0
1.400000 0.100000 0
1.500000 0.100000 0
1.600000 0.100000 0
1.700000 0.100000 0
1.800000 0.100000 0
1.900000 0.100000 0
2.000000 0.100000 0
2.100000 0.100000 0
2.200000 0.100000 0
2.300000 0.100000 0
2.400000 0.100000 0
2.500000 0.100000 0
2.600000 0.100000 0
2.700000 0.100000 0
2.800000 0.100000 0
2.900000 0.100000 0
3.000000 0.100000 0
3.100000 0.100000 0
3.200000 0.100000 0
3.300000 0.100000 0
3.400000 0.100000 0
3.500000 0.100000 0
3.600000 0.100000 0
3.700000 0.100000 0
3.800000 0.100000 0
3.900000 0.100000 0
4.000000 0.100000 0
4.100000 0.100000 0
4.200000 0.100000 0
4.300000 0.100000 0
4.400000 0.100000 0
4.500000 0.100000 0
4.600000 0.100000 0
4.700000 0.100000 0
4.800000 0.100000 0
4.900000 0.100000 0
5.000000 0.100000 0
5.100000 0.100000 0
5.200000 0.100000 0
5.300000 0.100000 0
5.400000 0.100000 0
5.500000 0.100000 0
5.600000 0.100000 0
5.700000 0.100000 0
5.800000 0.100000 0
5.900000 0.100000 0
6.000000 0.100000 0
6.100000 0.100000 0
6.200000 0.100000 0
6.300000 0.100000 0
6.400000 0.100000 0
6.500000 0.100000 0
6.600000 0.100000 0
6.700000 0.100000 0
6.800000 0.100000 0
6.900000 0.100000 0
7.000000 0.100000 0
7.100000 0.100000 0
7.200000 0.100000 0
7.300000 0.100000 0
7.400000 0.100000 0
7.500000 0.100000 0
7.600000 0.100000 0
7.700000 0.100000 0
7.800000 0.100000 0
7.900000 0.100000 0
8.000000 0.100000 0
8.100000 0.100000 0
8.200000 0.100000 0
8.300000 0.100000 0
8.400000 0.100000 0
8.500000 0.100000 0
8.600000 0.100000 0
8.700000 0.100000 0
8.800000 0.100000 0
8.900000 0.100000 0
9.000000 0.100000 0
9.100000 0.100000 0
9.200000 0.100000 0
9.300000 0.100000 0
9.400000 0.100000 0
9.500000 0.100000 0
9.600000 0.100000 0
9.700000 0.100000 0
9.800000 0.100000 0
9.900000 0.100000 0
10.000000 0.100000 0
0.000000 0.200000 0
0.100000 0.200000 0
0.200000 0.200000 0
0.300000 0.200000 0
0.400000 0.200000 0
0.500000 0.200000 0
0.600000 0.200000 0
0.700000 0.200000 0
0.800000 0.200000 0
0.900000 0.200000 0
1.000000 0.200000 0
1.100000 0.200000 0
1.200000 0.200000 0
1.300000 0.200000 0
1.400000 0.200000 0
1.500000 0.200000 0
1.600000 0.200000 0
1.700000 0.200000 0
1.800000 0.200000 0
1.900000 0.200000 0
2.000000 0.200000 0
2.100000 0.200000 0
2.200000 0.200000 0
2.300000 0.200000 0
2.400000 0.200000 0
2.500000 0.200000 0
2.600000 0.200000 0
2.700000 0.200000 0
2.800000 0.200000 0
2.900000 0.200000 0
3.000000 0.200000 0
3.100000 0.200000 0
3.200000 0.200000 0
3.300000 0.200000 0
3.400000 0.200000 0
3.500000 0.200000 0
3.600000 0.200000 0
3.700000 0.200000 0
3.800000 0.200000 0
3.900000 0.200000 0
4.000000 0.200000 0
4.100000 0.200000 0
4.200000 0.200000 0
4.300000 0.200000 0
4.400000 0.200000 0
4.500000 0.200000 0
4.600000 0.200000 0
4.700000 0.200000 0
4.800000 0.200000 0
4.900000 0.200000 0
5.000000 0.200000 0
5.100000 0.200000 0
5.200000 0.200000 0
5.300000 0.200000 0
5.400000 0.200000 0
5.500000 0.200000 0
5.600000 0.200000 0
5.700000 0.200000 0
5.800000 0.200000 0
5.900000 0.200000 0
6.000000 0.200000 0
6.100000 0.200000 0
6.200000 0.200000 0
6.300000 0.200000 0
6.400000 0.200000 0
6.500000 0.200000 0
6.600000 0.200000 0
6.700000 0.200000 0
6.800000 0.200000 0
6.900000 0.200000 0
7.000000 0.200000 0
7.100000 0.200000 0
7.200000 0.200000 0
7.300000 0.200000 0
7.400000 0.200000 0
7.500000 0.200000 0
7.600000 0.200000 0
7.700000 0.200000 0
7.800000 0.200000 0
7.900000 0.200000 0
8.000000 0.200000 0
8.100000 0.200000 0
8.200000 0.200000 0
8.300000 0.200000 0
8.400000 0.200000 0
8.500000 0.200000 0
8.600000 0.200000 0
8.700000 0.200000 0
8.800000 0.200000 0
8.900000 0.200000 0
9.000000 0.200000 0
9.100000 0.200000 0
9.200000 0.200000 0
9.300000 0.200000 0
9.400000 0.200000 0
9.500000 0.200000 0
9.600000 0.200000 0
9.700000 0.200000 0
9.800000 0.200000 0
9.900000 0.200000 0
10.000000 0.200000 0
0.000000 0.300000 0
0.100000 0.300000 0
0.200000 0.300000 0
0.300000 0.300000 0
0.400000 0.300000 0
0.500000 0.300000 0
0.600000 0.300000 0
0.700000 0.300000 0
0.800000 0.300000 0
0.900000 0.300000 0
1.000000 0.300000 0
1.100000 0.300000 0
1.200000 0.300000 0
1.300000 0.300000 0
1.400000 0.300000 0
1.500000 0.300000 0
1.600000 0.300000 0
1.700000 0.300000 0
1.800000 0.300000 0
1.900000 0.300000 0
2.000000 0.300000 0
2.100000 0.300000 0
2.200000 0.300000 0
2.300000 0.300000 0
2.400000 0.300000 0
2.500000 0.300000 0
2.600000 0.300000 0
2.700000 0.300000 0
2.800000 0.300000 0
2.900000 0.300000 0
3.000000 0.300000 0
3.100000 0.300000 0
3.200000 0.300000 0
3.300000 0.300000 0
3.400000 0.300000 0
3.500000 0.300000 0
3.600000 0.300000 0
3.700000 0.300000 0
3.800000 0.300000 0
3.900000 0.300000 0
4.000000 0.300000 0
4.100000 0.300000 0
4.200000 0.300000 0
4.300000 0.300000 0
4.400000 0.300000 0
4.500000 0.300000 0
4.600000 0.300000 0
4.700000 0.300000 0
4.800000 0.300000 0
4.900000 0.300000 0
5.000000 0.300000 0
5.100000 0.300000 0
5.200000 0.300000 0
5.300000 0.300000 0
5.400000 0.300000 0
5.500000 0.300000 0
5.600000 0.300000 0
5.700000 0.300000 0
5.800000 0.300000 0
5.900000 0.300000 0
6.000000 0.300000 0
6.100000 0.300000 0
6.200000 0.300000 0
6.300000 0.300000 0
6.400000 0.300000 0
6.500000 0.300000 0
6.600000 0.300000 0
6.700000 0.300000 0
6.800000 0.300000 0
6.900000 0.300000 0
7.000000 0.300000 0
7.100000 0.300000 0
7.200000 0.300000 0
7.300000 0.300000 0
7.400000 0.300000 0
7.500000 0.300000 0
7.600000 0.300000 0
7.700000 0.300000 0
7.800000 0.300000 0
7.900000 0.300000 0
8.000000 0.300000 0
8.100000 0.300000 0
8.200000 0.300000 0
8.300000 0.300000 0
8.400000 0.300000 0
8.500000 0.300000 0
8.600000 0.300000 0
8.700000 0.300000 0
8.800000 0.300000 0
8.900000 0.300000 0
9.000000 0.300000 0
9.100000 0.300000 0
9.200000 0.300000 0
9.300000 0.300000 0
9.400000 0.300000 0
9.500000 0.300000 0
9.600000 0.300000 0
9.700000 0.300000 0
9.800000 0.300000 0
9.900000 0.300000 0
10.000000 0.300000 0
0.000000 0.400000 0
0.100000 0.400000 0
0.200000 0.400000 0
0.300000 0.400000 0
0.400000 0.400000 0
0.500000 0.400000 0
0.600000 0.400000 0
0.700000 0.400000 0
0.800000 0.400000 0
0.900000 0.400000 0
1.000000 0.400000 0
1.100000 0.400000 0
1.200000 0.400000 0
1.300000 0.400000 0
1.400000 0.400000 0
1.500000 0.400000 0
1.600000 0.400000 0
1.700000 0.400000 0
1.800000 0.400000 0
1.900000 0.400000 0
2.000000 0.400000 0
2.100000 0.400000 0
2.200000 0.400000 0
2.300000 0.400000 0
2.400000 0.400000 0
2.500000 0.400000 0
2.600000 0.400000 0
2.700000 0.400000 0
2.800000 0.400000 0
2.900000 0.400000 0
3.000000 0.400000 0
3.100000 0.400000 0
3.200000 0.400000 0
3.300000 0.400000 0
3.400000 0.400000 0
3.500000 0.400000 0
3.600000 0.400000 0
3.700000 0.400000 0
3.800000 0.400000 0
3.900000 0.400000 0
4.000000 0.400000 0
4.100000 0.400000 0
4.200000 0.400000 0
4.300000 0.400000 0
4.400000 0.400000 0
4.500000 0.400000 0
4.600000 0.400000 0
4.700000 0.400000 0
4.800000 0.400000 0
4.900000 0.400000 0
5.000000 0.400000 0
5.100000 0.400000 0
5.200000 0.400000 0
5.300000 0.400000 0
5.400000 0.400000 0
5.500000 0.400000 0
5.600000 0.400000 0
5.700000 0.400000 0
5.800000 0.400000 0
5.900000 0.400000 0
6.000000 0.400000 0
6.100000 0.400000 0
6.200000 0.400000 0
6.300000 0.400000 0
6.400000 0.400000 0
6.500000 0.400000 0
6.600000 0.400000 0
6.700000 0.400000 0
6.800000 0.400000 0
6.900000 0.400000 0
7.000000 0.400000 0
7.100000 0.400000 0
7.200000 0.400000 0
7.300000 0.400000 0
7.400000 0.400000 0
7.500000 0.400000 0
7.600000 0.400000 0
7.700000 0.400000 0
7.800000 0.400000 0
7.900000 0.400000 0
8.000000 0.400000 0
8.100000 0.400000 0
8.200000 0.400000 0
8.300000 0.400000 0
8.400000 0.400000 0
8.500000 0.400000 0
8.600000 0.400000 0
[...]
POINT_DATA 2121 

VECTORS velocity float
0.500000 0.000000 0
0.000059 0.000000 0
0.000152 0.000000 0
0.000250 0.000000 0
0.000341 0.000000 0
0.000412 0.000000 0
0.000445 0.000000 0
0.000411 0.000000 0
0.000277 0.000000 0
0.000015 0.000000 0
-0.000395 0.000000 0
-0.000965 0.000000 0
-0.001694 0.000000 0
-0.002545 0.000000 0
-0.003450 0.000000 0
-0.004308 0.000000 0
-0.004986 0.000000 0
-0.005176 0.000000 0
-0.004417 0.000000 0
-0.002779 0.000000 0
-0.000575 0.000000 0
0.001664 0.000000 0
0.003406 0.000000 0
0.004539 0.000000 0
0.005072 0.000000 0
0.005067 0.000000 0
0.004703 0.000000 0
0.004204 0.000000 0
0.003738 0.000000 0
0.003283 0.000000 0
0.002685 0.000000 0
0.001818 0.000000 0
0.000558 0.000000 0
-0.001278 0.000000 0
-0.003240 0.000000 0
-0.003810 0.000000 0
-0.002412 0.000000 0
-0.000232 0.000000 0
0.001787 0.000000 0
0.003205 0.000000 0
0.002978 0.000000 0
0.001290 0.000000 0
0.017529 0.000000 0
0.020559 0.000000 0
-0.000100 0.000000 0
-0.002544 0.000000 0
-0.002769 0.000000 0
-0.003170 0.000000 0
0.000827 0.000000 0
0.003348 0.000000 0
0.006138 0.000000 0
0.006793 0.000000 0
0.005243 0.000000 0
0.003094 0.000000 0
0.001570 0.000000 0
0.000590 0.000000 0
-0.000173 0.000000 0
-0.000895 0.000000 0
-0.001476 0.000000 0
-0.001897 0.000000 0
-0.002542 0.000000 0
-0.003777 0.000000 0
-0.005717 0.000000 0
-0.008153 0.000000 0
-0.010309 0.000000 0
-0.011997 0.000000 0
-0.012453 0.000000 0
-0.010904 0.000000 0
-0.008032 0.000000 0
-0.008236 0.000000 0
-0.009898 0.000000 0
-0.008688 0.000000 0
-0.007779 0.000000 0
-0.006797 0.000000 0
-0.005247 0.000000 0
-0.003295 0.000000 0
-0.001082 0.000000 0
0.001253 0.000000 0
0.003766 0.000000 0
0.006738 0.000000 0
0.011209 0.000000 0
0.019115 0.000000 0
0.018369 0.000000 0
0.008626 0.000000 0
0.001200 0.000000 0
-0.002188 0.000000 0
-0.000778 0.000000 0
-0.000621 0.000000 0
-0.001170 0.000000 0
-0.001043 0.000000 0
-0.000618 0.000000 0
-0.000337 0.000000 0
-0.000236 0.000000 0
-0.000244 0.000000 0
-0.000301 0.000000 0
-0.000384 0.000000 0
-0.000480 0.000000 0
-0.000573 0.000000 0
-0.000674 0.000000 0
-0.000745 0.000000 0
-0.000814 0.000000 0
1.000000 -0.003141 0
1.006839 -0.009699 0
1.020726 -0.016715 0
1.041984 -0.023938 0
1.070843 -0.030837 0
1.106854 -0.036424 0
1.148254 -0.039322 0
1.191591 -0.038022 0
1.230604 -0.032365 0
1.260847 -0.024208 0
1.281146 -0.016046 0
1.293046 -0.009982 0
1.299981 -0.007308 0
1.306138 -0.008432 0
1.315642 -0.012971 0
1.331710 -0.020006 0
1.356772 -0.028065 0
1.392060 -0.033851 0
1.432866 -0.032591 0
1.467348 -0.022103 0
1.485360 -0.004473 0
1.480799 0.015538 0
1.455087 0.032893 0
1.414383 0.044967 0
1.364595 0.051185 0
1.312074 0.052017 0
1.261980 0.049006 0
1.217067 0.044184 0
1.177552 0.039006 0
1.142422 0.033509 0
1.111821 0.026678 0
1.087418 0.017436 0
1.071365 0.004405 0
1.069748 -0.012974 0
1.091259 -0.029942 0
1.135090 -0.035249 0
1.176064 -0.023417 0
1.193762 -0.001523 0
1.184720 0.021261 0
1.153372 0.036680 0
1.107761 0.029939 0
1.051148 0.064683 0
0.959634 0.227079 0
0.828457 0.251813 0
0.730657 0.042364 0
0.583242 -0.051008 0
0.478949 -0.049445 0
0.572163 -0.060764 0
0.647392 -0.025037 0
0.586678 0.018673 0
0.493766 0.057368 0
0.417331 0.078420 0
0.360488 0.068446 0
0.331166 0.043258 0
0.319503 0.020567 0
0.314474 0.003400 0
0.315568 -0.011870 0
0.324582 -0.025254 0
0.341475 -0.031582 0
0.361135 -0.029541 0
0.376640 -0.024407 0
0.390238 -0.023920 0
0.410546 -0.033342 0
0.446076 -0.051337 0
0.500631 -0.072177 0
0.575706 -0.089832 0
0.670150 -0.098404 0
0.776812 -0.089699 0
0.884774 -0.073174 0
0.983328 -0.069704 0
1.065592 -0.073085 0
1.135772 -0.068542 0
1.196909 -0.059442 0
1.250974 -0.049644 0
1.296032 -0.036835 0
1.327343 -0.020546 0
1.342794 -0.001723 0
1.340158 0.018762 0
1.317146 0.040815 0
1.271178 0.066897 0
1.201109 0.105333 0
1.108480 0.163878 0
1.007011 0.168224 0
0.929784 0.094012 0
0.884614 0.021936 0
0.852965 -0.008920 0
0.821648 -0.006694 0
0.799433 -0.002292 0
0.795365 -0.004722 0
0.804515 -0.005240 0
0.808770 -0.001903 0
0.807619 0.001141 0
0.803787 0.002784 0
0.799011 0.003413 0
0.794245 0.003599 0
0.790141 0.003393 0
0.786811 0.003062 0
0.784374 0.002360 0
0.783052 0.001528 0
0.781884 -0.000077 0
0.783299 -0.001556 0
1.000000 -0.006853 0
1.006956 -0.020747 0
1.021265 -0.035158 0
1.043292 -0.050129 0
1.073987 -0.064883 0
1.113802 -0.077424 0
1.161568 -0.084749 0
1.214957 -0.082361 0
1.261700 -0.069267 0
1.295221 -0.050553 0
1.314953 -0.032209 0
1.323614 -0.018845 0
1.326241 -0.013101 0
1.328175 -0.015669 0
1.334745 -0.025580 0
1.349508 -0.041137 0
1.375589 -0.060357 0
1.416510 -0.076101 0
1.468480 -0.075295 0
1.516638 -0.052500 0
1.545833 -0.013456 0
1.545593 0.030268 0
1.517177 0.066412 0
1.470706 0.090488 0
1.415186 0.102305 0
1.357182 0.102613 0
1.303712 0.095005 0
1.259768 0.084426 0
1.224540 0.074643 0
1.192092 0.065730 0
1.159646 0.055003 0
1.129296 0.040456 0
1.100090 0.017669 0
1.081698 -0.019894 0
1.096692 -0.065341 0
1.162231 -0.084803 0
1.227269 -0.058670 0
1.256338 -0.008655 0
1.252389 0.040392 0
1.222127 0.076962 0
1.169532 0.102227 0
1.085097 0.148130 0
1.025642 0.222694 0
1.069108 0.228980 0
1.025228 0.245218 0
0.855221 0.251712 0
0.765426 0.011083 0
0.637273 -0.168439 0
0.476473 -0.014511 0
0.356974 0.153630 0
0.301202 0.169351 0
0.286707 0.133283 0
0.282571 0.086170 0
0.306754 0.040989 0
0.344837 0.016697 0
0.361910 0.003940 0
0.344408 -0.010103 0
0.309449 -0.025903 0
0.283661 -0.036548 0
0.265277 -0.035160 0
0.247134 -0.029099 0
0.236691 -0.033901 0
0.241736 -0.055833 0
0.265378 -0.090080 0
0.304691 -0.129625 0
0.357760 -0.169515 0
0.427398 -0.201102 0
0.516523 -0.214620 0
0.628607 -0.206511 0
0.750222 -0.180813 0
0.860397 -0.152440 0
0.954622 -0.131313 0
1.032178 -0.115197 0
1.089106 -0.099118 0
1.130087 -0.076365 0
1.161237 -0.046758 0
1.182774 -0.012811 0
1.193662 0.025653 0
1.191210 0.068985 0
1.167829 0.116041 0
1.127741 0.162702 0
1.094224 0.194103 0
1.098586 0.178700 0
1.092068 0.122401 0
1.070385 0.076824 0
1.043052 0.062971 0
1.014409 0.053537 0
0.986507 0.026288 0
0.952387 -0.005077 0
0.912019 -0.013399 0
0.884562 -0.003099 0
0.868472 0.004989 0
0.858369 0.008614 0
0.851045 0.009547 0
0.845139 0.008875 0
0.840237 0.007441 0
0.836038 0.005774 0
0.832928 0.003765 0
0.830591 0.002495 0
0.829739 -0.000242 0
0.831208 -0.002967 0
1.000000 -0.010108 0
1.005464 -0.030977 0
1.018786 -0.053056 0
1.039683 -0.076666 0
1.070946 -0.101353 0
1.114847 -0.124010 0
1.171236 -0.140482 0
1.246960 -0.138159 0
1.307672 -0.112633 0
1.344526 -0.077465 0
1.360577 -0.044443 0
1.360706 -0.021274 0
1.353460 -0.011873 0
1.345519 -0.016939 0
1.345058 -0.034307 0
1.354718 -0.060853 0
1.376614 -0.095070 0
1.418637 -0.126746 0
1.481922 -0.132722 0
1.550642 -0.099459 0
1.603335 -0.033430 0
1.616788 0.044191 0
1.585635 0.107779 0
1.521819 0.146957 0
1.447840 0.164707 0
1.379211 0.163490 0
1.323010 0.146419 0
1.278974 0.123355 0
1.236616 0.106682 0
1.186097 0.098402 0
1.135489 0.089474 0
1.099471 0.076993 0
1.064003 0.052003 0
1.018547 -0.009576 0
1.025091 -0.110475 0
1.110874 -0.165826 0
1.200697 -0.117523 0
1.236359 -0.026642 0
1.243769 0.055473 0
1.227492 0.119538 0
1.192633 0.166970 0
1.142168 0.208574 0
1.106076 0.243069 0
1.098265 0.252228 0
1.055281 0.256252 0
1.067393 0.208796 0
1.060559 0.168505 0
0.815988 0.228190 0
0.561215 0.255264 0
0.478163 0.193946 0
0.461217 0.127637 0
0.438947 0.097053 0
0.421276 0.048401 0
0.436002 -0.019006 0
0.480641 -0.034587 0
0.530263 0.003831 0
0.550176 0.040593 0
0.515515 0.035494 0
0.437464 0.012592 0
0.343187 0.006988 0
0.265334 0.004180 0
0.222335 -0.018520 0
0.217074 -0.062028 0
0.241422 -0.114290 0
0.282075 -0.164557 0
0.323622 -0.212537 0
0.359330 -0.257165 0
0.395956 -0.290906 0
0.444014 -0.306871 0
0.511672 -0.301492 0
0.600844 -0.277484 0
0.698648 -0.240322 0
0.791318 -0.193923 0
0.867716 -0.147551 0
0.923984 -0.108965 0
0.963969 -0.073231 0
0.989565 -0.034146 0
1.003432 0.010328 0
1.009916 0.066650 0
1.012162 0.130368 0
1.018051 0.178940 0
1.035233 0.193035 0
1.063882 0.170382 0
1.074196 0.122215 0
1.049936 0.070954 0
1.012019 0.047058 0
0.984038 0.049853 0
0.957918 0.059732 0
0.924494 0.069769 0
0.888989 0.062587 0
0.868454 0.041646 0
0.857879 0.027337 0
0.850531 0.020213 0
0.843697 0.016646 0
0.836996 0.014410 0
0.830730 0.012496 0
0.825481 0.010374 0
0.821614 0.007809 0
0.819312 0.004718 0
0.819176 -0.000692 0
0.820988 -0.004666 0
1.000000 -0.012328 0
1.001549 -0.039547 0
1.014011 -0.069383 0
1.030999 -0.102296 0
1.060917 -0.140054 0
1.107789 -0.177719 0
1.172495 -0.216866 0
1.304102 -0.218802 0
1.385359 -0.166838 0
1.420003 -0.103462 0
1.426205 -0.048393 0
1.409308 -0.011732 0
1.385660 0.002083 0
1.358489 -0.007271 0
1.344711 -0.034783 0
1.340036 -0.072696 0
1.339175 -0.124279 0
1.360813 -0.181412 0
1.415112 -0.207303 0
1.495866 -0.173916 0
1.588591 -0.079604 0
1.642445 0.047967 0
1.639759 0.161378 0
1.585786 0.228281 0
1.493324 0.244912 0
1.391642 0.227442 0
1.324328 0.195241 0
1.298858 0.170818 0
1.296146 0.167519 0
1.265704 0.166857 0
1.211559 0.141629 0
1.211717 0.111941 0
1.261606 0.098594 0
1.233363 0.019018 0
1.130144 -0.157669 0
1.016648 -0.260409 0
0.990849 -0.184154 0
1.032415 -0.051726 0
1.083815 0.049259 0
1.111963 0.128099 0
1.116905 0.187553 0
1.106355 0.234688 0
1.096897 0.266599 0
1.093433 0.279776 0
1.081592 0.276091 0
1.076962 0.246435 0
1.017704 0.262490 0
0.953407 0.330907 0
0.923246 0.323317 0
0.895686 0.253629 0
0.849362 0.208569 0
0.803702 0.173227 0
0.780889 0.089117 0
0.734887 -0.018374 0
0.665651 -0.077563 0
0.646441 -0.065593 0
0.674020 0.004647 0
0.653069 0.086812 0
0.552147 0.135782 0
0.413567 0.136972 0
0.306201 0.091755 0
0.261685 0.014360 0
0.271540 -0.074918 0
0.318912 -0.155079 0
0.386922 -0.211824 0
0.453215 -0.246768 0
0.501006 -0.273434 0
0.520836 -0.299301 0
0.517833 -0.322226 0
0.509354 -0.337642 0
0.513701 -0.339414 0
0.539308 -0.321785 0
0.585703 -0.284264 0
0.646399 -0.231783 0
0.708122 -0.172616 0
0.759782 -0.112337 0
0.799036 -0.052272 0
0.827510 0.005303 0
0.850402 0.060257 0
0.878660 0.107908 0
0.915217 0.139633 0
0.950687 0.148274 0
0.971641 0.139740 0
0.969948 0.136350 0
0.943784 0.139003 0
0.908663 0.128871 0
0.891114 0.107641 0
0.891066 0.085835 0
0.898645 0.063854 0
0.904153 0.042642 0
0.893918 0.028013 0
0.875278 0.022914 0
0.856095 0.022799 0
0.839751 0.023084 0
0.827041 0.021844 0
0.817934 0.018958 0
0.812064 0.014892 0
0.809110 0.009936 0
0.808441 0.004935 0
0.809463 -0.001916 0
0.811777 -0.006785 0
1.000000 -0.011669 0
0.999371 -0.045003 0
1.006217 -0.082512 0
1.014329 -0.123580 0
1.041330 -0.178150 0
1.083739 -0.235593 0
1.152842 -0.336801 0
1.403295 -0.351028 0
1.480161 -0.228539 0
1.484123 -0.118316 0
1.471588 -0.033751 0
1.418157 0.019267 0
1.381487 0.038942 0
1.310784 0.024006 0
1.278553 -0.015856 0
1.240969 -0.055321 0
1.194324 -0.115850 0
1.089958 -0.202686 0
1.058184 -0.267778 0
1.143797 -0.272941 0
1.299807 -0.180011 0
1.417550 -0.006978 0
1.480602 0.164436 0
1.506119 0.293390 0
1.470405 0.358849 0
1.375559 0.332485 0
1.243785 0.239202 0
1.185308 0.151537 0
1.239167 0.139836 0
1.285455 0.182989 0
1.272785 0.143461 0
1.153864 0.026945 0
0.998349 0.030358 0
0.873314 0.121886 0
0.740098 0.106240 0
0.599993 -0.026531 0
0.547738 -0.133289 0
0.616042 -0.119606 0
0.727004 -0.024074 0
0.830063 0.086448 0
0.911121 0.172579 0
0.968724 0.228583 0
1.007957 0.255993 0
1.032876 0.267535 0
1.048191 0.272724 0
1.056334 0.272686 0
1.036812 0.292061 0
1.046815 0.322650 0
1.080797 0.312986 0
1.088177 0.267831 0
1.075925 0.219623 0
1.066194 0.165528 0
1.049321 0.117218 0
1.003769 0.096235 0
0.955727 0.053861 0
0.857443 -0.004537 0
0.709343 0.033967 0
0.592644 0.157369 0
0.485711 0.252096 0
0.370494 0.252936 0
0.322439 0.156064 0
0.333103 0.016143 0
0.381489 -0.119252 0
0.450724 -0.229670 0
0.525616 -0.298858 0
0.598993 -0.326619 0
0.662653 -0.324785 0
0.702724 -0.307732 0
0.712234 -0.295387 0
0.693456 -0.297358 0
0.657567 -0.307436 0
0.620304 -0.312322 0
0.596089 -0.301013 0
0.591871 -0.269968 0
0.607233 -0.222345 0
0.635771 -0.164143 0
0.671583 -0.101872 0
0.710569 -0.041037 0
0.749480 0.015502 0
0.788693 0.065555 0
0.824855 0.106914 0
0.854964 0.136613 0
0.874282 0.151123 0
0.888920 0.150074 0
0.912311 0.132241 0
0.941199 0.099731 0
0.960627 0.067451 0
0.965910 0.052202 0
0.956140 0.056685 0
0.932482 0.067316 0
0.899590 0.070522 0
0.866580 0.065162 0
0.839490 0.055742 0
0.819874 0.045702 0
0.806933 0.036229 0
0.799240 0.027474 0
0.795557 0.019201 0
0.794846 0.011435 0
0.796019 0.004367 0
0.798982 -0.004026 0
0.801983 -0.009487 0
1.000000 -0.011712 0
0.999876 -0.045779 0
0.997558 -0.084347 0
0.998081 -0.137416 0
1.011965 -0.209470 0
1.025040 -0.289237 0
1.108819 -0.536428 0
1.446825 -0.546126 0
1.380564 -0.247670 0
1.298096 -0.094894 0
1.262021 0.017568 0
1.276062 0.078365 0
1.072957 0.109452 0
1.115260 0.095660 0
0.822328 0.035029 0
0.577656 0.011529 0
0.560977 0.026729 0
0.260925 -0.045276 0
0.217581 -0.261145 0
0.303175 -0.415542 0
0.588405 -0.353359 0
0.929035 -0.132831 0
1.132825 0.072807 0
1.222840 0.238476 0
1.250565 0.375471 0
1.223732 0.454061 0
1.117321 0.385490 0
1.014933 0.175435 0
0.981023 0.067372 0
0.965281 0.133239 0
0.857508 0.273219 0
0.592017 0.386376 0
0.300518 0.379144 0
0.156617 0.277269 0
0.139268 0.115652 0
0.165882 -0.068049 0
0.189332 -0.200203 0
0.248441 -0.230991 0
0.360416 -0.164760 0
0.508173 -0.056018 0
0.656547 0.048892 0
0.786736 0.137854 0
0.887573 0.202448 0
0.953972 0.239544 0
0.995783 0.252634 0
1.023820 0.257815 0
1.046632 0.272010 0
1.084333 0.286924 0
1.128312 0.281957 0
1.154186 0.258502 0
1.161624 0.230553 0
1.157789 0.199832 0
1.136400 0.151543 0
1.099167 0.075222 0
1.032796 0.068766 0
0.883242 0.180794 0
0.692518 0.269447 0
0.548740 0.310445 0
0.463109 0.357934 0
0.442659 0.300246 0
0.488153 0.129147 0
0.558987 -0.044689 0
0.636510 -0.192537 0
0.714256 -0.299205 0
0.779458 -0.360091 0
0.833708 -0.383803 0
0.872434 -0.377163 0
0.886124 -0.348881 0
0.877395 -0.312957 0
0.855083 -0.282973 0
0.825051 -0.266260 0
0.788353 -0.260306 0
0.748056 -0.255829 0
0.709682 -0.242924 0
0.681022 -0.216513 0
0.667770 -0.176686 0
0.670227 -0.127068 0
0.685391 -0.072592 0
0.709422 -0.017865 0
0.740623 0.032536 0
0.778155 0.073364 0
0.822032 0.098849 0
0.868942 0.105786 0
0.911902 0.098323 0
0.942804 0.086725 0
0.952103 0.080557 0
0.935909 0.082932 0
0.902377 0.090324 0
0.865976 0.097284 0
0.837745 0.099194 0
0.818159 0.093918 0
0.804082 0.083016 0
0.793629 0.069508 0
0.786575 0.055644 0
0.782739 0.042480 0
0.781967 0.030337 0
0.783344 0.019288 0
0.786174 0.009476 0
0.789791 0.000801 0
0.793676 -0.007878 0
0.797332 -0.012980 0
1.000000 -0.011558 0
0.999941 -0.042577 0
0.998858 -0.080724 0
0.973268 -0.137994 0
0.984091 -0.205116 0
0.921933 -0.332454 0
1.017771 -0.758592 0
0.714016 -0.542965 0
0.000738 0.000000 0
0.001606 0.000000 0
0.522108 -0.011945 0
0.573688 0.208328 0
0.536179 0.199740 0
0.569023 0.274632 0
0.265817 0.521744 0
0.084873 0.206027 0
-0.350630 0.200877 0
-0.411532 0.140706 0
-0.502630 -0.310031 0
-0.388781 -0.643767 0
-0.141561 -0.805873 0
0.314190 -0.551400 0
0.709453 -0.129371 0
0.912139 0.175648 0
1.016796 0.357955 0
1.071327 0.465728 0
1.016963 0.448000 0
0.837453 0.287834 0
0.684533 0.189487 0
0.562260 0.306503 0
0.344147 0.516724 0
0.184452 0.583934 0
0.144963 0.465758 0
0.160322 0.283136 0
0.180753 0.096975 0
0.174746 -0.076594 0
0.148159 -0.215848 0
0.140878 -0.290690 0
0.188348 -0.283805 0
0.298376 -0.209682 0
0.440259 -0.105983 0
0.587209 -0.002442 0
0.728099 0.088758 0
0.848783 0.159326 0
0.936929 0.202878 0
0.991021 0.221838 0
1.028111 0.231549 0
1.072870 0.240972 0
1.119354 0.243135 0
1.156563 0.234521 0
1.183670 0.216022 0
1.202782 0.190753 0
1.199839 0.175842 0
1.132393 0.199841 0
0.954319 0.269787 0
0.772667 0.335743 0
0.674122 0.368470 0
0.610748 0.386780 0
0.619727 0.358178 0
0.727650 0.227893 0
0.819026 0.039737 0
0.888322 -0.132212 0
0.942460 -0.274519 0
0.980992 -0.372616 0
1.011312 -0.418309 0
1.044810 -0.419593 0
1.085235 -0.377199 0
1.104961 -0.312691 0
1.089239 -0.264345 0
1.045305 -0.245013 0
0.992296 -0.240705 0
0.946505 -0.235325 0
0.910116 -0.222340 0
0.878974 -0.202932 0
0.847166 -0.180431 0
0.818136 -0.153346 0
0.798355 -0.119492 0
0.792675 -0.080230 0
0.801968 -0.039728 0
0.823742 -0.003176 0
0.852611 0.025508 0
0.881855 0.045827 0
0.903637 0.061255 0
0.910813 0.076214 0
0.900964 0.092042 0
0.877899 0.106628 0
0.849421 0.117179 0
0.822776 0.122137 0
0.801915 0.121319 0
0.787824 0.115135 0
0.778990 0.104188 0
0.773463 0.089694 0
0.770368 0.073251 0
0.769661 0.056594 0
0.771293 0.040839 0
0.775294 0.026872 0
0.780367 0.014997 0
0.786504 0.004990 0
0.791630 -0.003134 0
0.795566 -0.011564 0
0.799930 -0.016977 0
1.000000 -0.011666 0
1.002466 -0.044655 0
0.981401 -0.057682 0
0.972951 -0.122656 0
0.915622 -0.158142 0
0.876804 -0.322924 0
0.725408 -0.408331 0
0.000000 0.000783 0
-0.616489 0.146369 0
-0.544550 0.000000 0
0.000000 0.000000 0
-0.001757 0.074480 0
0.211069 0.114113 0
0.017905 0.366017 0
0.385594 0.519175 0
0.147441 0.627972 0
-0.447748 0.523130 0
-0.502763 0.106722 0
-0.493499 -0.283899 0
-0.311798 -0.776614 0
-0.276301 -1.056332 0
-0.122954 -0.983848 0
0.306052 -0.525144 0
0.643048 -0.068869 0
0.844975 0.216282 0
0.923369 0.453893 0
0.861386 0.619362 0
0.705705 0.507864 0
0.560340 0.342564 0
0.378264 0.473624 0
0.238143 0.651026 0
0.270468 0.585559 0
0.339076 0.403274 0
0.349450 0.241479 0
0.330988 0.101228 0
0.304320 -0.035454 0
0.262099 -0.166334 0
0.219827 -0.271179 0
0.209034 -0.322257 0
0.251865 -0.307928 0
0.344450 -0.239940 0
0.464970 -0.149985 0
0.598566 -0.059125 0
0.732434 0.030715 0
0.850634 0.110398 0
0.941261 0.166635 0
0.999404 0.190162 0
1.039980 0.195683 0
1.083391 0.198266 0
1.124884 0.194187 0
1.158398 0.184335 0
1.173921 0.183665 0
1.153739 0.221934 0
1.085621 0.320743 0
0.984630 0.428494 0
0.901408 0.460993 0
0.853914 0.431368 0
0.856127 0.364842 0
0.924076 0.241033 0
1.025982 0.100948 0
1.097891 -0.031522 0
1.137541 -0.168120 0
1.148477 -0.285206 0
1.126127 -0.368056 0
1.082916 -0.423907 0
1.042986 -0.457724 0
1.047810 -0.437312 0
1.082839 -0.352884 0
1.108022 -0.253299 0
1.095976 -0.186028 0
1.058595 -0.167459 0
1.022104 -0.178124 0
0.995435 -0.188296 0
0.976859 -0.179973 0
0.965016 -0.155674 0
0.955662 -0.127873 0
0.945768 -0.101606 0
0.934527 -0.076203 0
0.923505 -0.048930 0
0.915371 -0.018106 0
0.907490 0.015253 0
0.896472 0.047824 0
0.880602 0.076830 0
0.860681 0.100998 0
0.839708 0.119640 0
0.820681 0.132102 0
0.805156 0.138057 0
0.793121 0.137831 0
0.783890 0.132239 0
0.776853 0.122121 0
0.771326 0.108281 0
0.766778 0.091641 0
0.763360 0.073311 0
0.761632 0.054720 0
0.762705 0.036850 0
0.766682 0.021265 0
0.773803 0.008081 0
0.783498 -0.001784 0
0.792809 -0.008259 0
0.802619 -0.016176 0
0.808517 -0.021880 0
1.000000 -0.014037 0
0.994938 -0.023996 0
0.967261 -0.051217 0
0.967171 -0.072222 0
0.868266 -0.108977 0
0.849413 -0.142248 0
0.513374 0.040602 0
0.369470 0.104836 0
0.000000 0.000000 0
0.000000 0.000000 0
0.000000 0.000000 0
0.000000 0.000000 0
0.067034 0.172629 0
0.106014 0.100102 0
0.132393 0.392204 0
-0.258659 1.039365 0
-0.214138 0.851078 0
-0.156479 0.186454 0
-0.042217 -0.501000 0
-0.009229 -0.860969 0
0.001818 -0.994720 0
-0.046887 -1.133755 0
0.107247 -0.895376 0
0.419060 -0.363277 0
0.640604 0.077632 0
0.743408 0.449315 0
0.782896 0.665662 0
0.833001 0.588879 0
0.716908 0.516927 0
0.506789 0.628699 0
0.480106 0.624520 0
0.519711 0.483001 0
0.469434 0.386776 0
0.376422 0.291225 0
0.327680 0.142105 0
0.307825 -0.007705 0
0.289397 -0.131354 0
0.277768 -0.237625 0
0.281443 -0.315843 0
0.308379 -0.345097 0
0.362605 -0.319087 0
0.444054 -0.256557 0
0.543245 -0.178706 0
0.652042 -0.092740 0
0.761311 -0.005947 0
0.861088 0.073069 0
0.941329 0.132831 0
0.994699 0.156987 0
1.036868 0.158233 0
1.076317 0.159515 0
1.102733 0.166986 0
1.107483 0.195414 0
1.088777 0.264144 0
1.061054 0.368952 0
1.056989 0.454001 0
1.078385 0.466460 0
1.105519 0.413753 0
1.153118 0.316620 0
1.210754 0.188325 0
1.253102 0.054080 0
1.290990 -0.071820 0
1.308322 -0.182797 0
1.291295 -0.263103 0
1.239293 -0.307054 0
1.156359 -0.335165 0