# vtk DataFile Version 2.0
generated by CFD-lab course output (written by Tobias Neckel) 
ASCII

DATASET STRUCTURED_GRID
DIMENSIONS  101 21 1 
POINTS 2121 float

0.000000 0.000000 0
0.100000 0.000000 0
0.200000 0.000000 0
0.300000 0.000000 0
0.400000 0.000000 0
0.500000 0.000000 0
0.600000 0.000000 0
0.700000 0.000000 0
0.800000 0.000000 0
0.900000 0.000000 0
1.000000 0.000000 0
1.100000 0.000000 0
1.200000 0.000000 0
1.300000 0.000000 0
1.400000 0.000000 0
1.500000 0.000000 0
1.600000 0.000000 0
1.700000 0.000000 0
1.800000 0.000000 0
1.900000 0.000000 0
2.000000 0.000000 0
2.100000 0.000000 0
2.200000 0.000000 0
2.300000 0.000000 0
2.400000 0.000000 0
2.500000 0.000000 0
2.600000 0.000000 0
2.700000 0.000000 0
2.800000 0.000000 0
2.900000 0.000000 0
3.000000 0.000000 0
3.100000 0.000000 0
3.200000 0.000000 0
3.300000 0.000000 0
3.400000 0.000000 0
3.500000 0.000000 0
3.600000 0.000000 0
3.700000 0.000000 0
3.800000 0.000000 0
3.900000 0.000000 0
4.000000 0.000000 0
4.100000 0.000000 0
4.200000 0.000000 0
4.300000 0.000000 0
4.400000 0.000000 0
4.500000 0.000000 0
4.600000 0.000000 0
4.700000 0.000000 0
4.800000 0.000000 0
4.900000 0.000000 0
5.000000 0.000000 0
5.100000 0.000000 0
5.200000 0.000000 0
5.300000 0.000000 0
5.400000 0.000000 0
5.500000 0.000000 0
5.600000 0.000000 0
5.700000 0.000000 0
5.800000 0.000000 0
5.900000 0.000000 0
6.000000 0.000000 0
6.100000 0.000000 0
6.200000 0.000000 0
6.300000 0.000000 0
6.400000 0.000000 0
6.500000 0.000000 0
6.600000 0.000000 0
6.700000 0.000000 0
6.800000 0.000000 0
6.900000 0.000000 0
7.000000 0.000000 0
7.100000 0.000000 0
7.200000 0.000000 0
7.300000 0.000000 0
7.400000 0.000000 0
7.500000 0.000000 0
7.600000 0.000000 0
7.700000 0.000000 0
7.800000 0.000000 0
7.900000 0.000000 0
8.000000 0.000000 0
8.100000 0.000000 0
8.200000 0.000000 0
8.300000 0.000000 0
8.400000 0.000000 0
8.500000 0.000000 0
8.600000 0.000000 0
8.700000 0.000000 0
8.800000 0.000000 0
8.900000 0.000000 0
9.000000 0.000000 0
9.100000 0.000000 0
9.200000 0.000000 0
9.300000 0.000000 0
9.400000 0.000000 0
9.500000 0.000000 0
9.600000 0.000000 0
9.700000 0.000000 0
9.800000 0.000000 0
9.900000 0.000000 0
10.000000 0.000000 0
0.000000 0.100000 0
0.100000 0.100000 0
0.200000 0.100000 0
0.300000 0.100000 0
0.400000 0.100000 0
0.500000 0.100000 0
0.600000 0.100000 0
0.700000 0.100000 0
0.800000 0.100000 0
0.900000 0.100000 0
1.000000 0.100000 0
1.100000 0.100000 0
1.200000 0.100000 0
1.300000 0.100000 0
1.400000 0.100000 0
1.500000 0.100000 0
1.600000 0.100000 0
1.700000 0.100000 0
1.800000 0.100000 0
1.900000 0.100000 0
2.000000 0.100000 0
2.100000 0.100000 0
2.200000 0.100000 0
2.300000 0.100000 0
2.400000 0.100000 0
2.500000 0.100000 0
2.600000 0.100000 0
2.700000 0.100000 0
2.800000 0.100000 0
2.900000 0.100000 0
3.000000 0.100000 0
3.100000 0.100000 0
3.200000 0.100000 0
3.300000 0.100000 0
3.400000 0.100000 0
3.500000 0.100000 0
3.600000 0.100000 0
3.700000 0.100000 0
3.800000 0.100000 0
3.900000 0.100000 0
4.000000 0.100000 0
4.100000 0.100000 0
4.200000 0.100000 0
4.300000 0.100000 0
4.400000 0.100000 0
4.500000 0.100000 0
4.600000 0.100000 0
4.700000 0.100000 0
4.800000 0.100000 0
4.900000 0.100000 0
5.000000 0.100000 0
5.100000 0.100000 0
5.200000 0.100000 0
5.300000 0.100000 0
5.400000 0.100000 0
5.500000 0.100000 0
5.600000 0.100000 0
5.700000 0.100000 0
5.800000 0.100000 0
5.900000 0.100000 0
6.000000 0.100000 0
6.100000 0.100000 0
6.200000 0.100000 0
6.300000 0.100000 0
6.400000 0.100000 0
6.500000 0.100000 0
6.600000 0.100000 0
6.700000 0.100000 0
6.800000 0.100000 0
6.900000 0.100000 0
7.000000 0.100000 0
7.100000 0.100000 0
7.200000 0.100000 0
7.300000 0.100000 0
7.400000 0.100000 0
7.500000 0.100000 0
7.600000 0.100000 0
7.700000 0.100000 0
7.800000 0.100000 0
7.900000 0.100000 0
8.000000 0.100000 0
8.100000 0.100000 0
8.200000 0.100000 0
8.300000 0.100000 0
8.400000 0.100000 0
8.500000 0.100000 0
8.600000 0.100000 0
8.700000 0.100000 0
8.800000 0.100000 0
8.900000 0.100000 0
9.000000 0.100000 0
9.100000 0.100000 0
9.200000 0.100000 0
9.300000 0.100000 0
9.400000 0.100000 0
9.500000 0.100000 0
9.600000 0.100000 0
9.700000 0.100000 0
9.800000 0.100000 0
9.900000 0.100000 0
10.000000 0.100000 0
0.000000 0.200000 0
0.100000 0.200000 0
0.200000 0.200000 0
0.300000 0.200000 0
0.400000 0.200000 0
0.500000 0.200000 0
0.600000 0.200000 0
0.700000 0.200000 0
0.800000 0.200000 0
0.900000 0.200000 0
1.000000 0.200000 0
1.100000 0.200000 0
1.200000 0.200000 0
1.300000 0.200000 0
1.400000 0.200000 0
1.500000 0.200000 0
1.600000 0.200000 0
1.700000 0.200000 0
1.800000 0.200000 0
1.900000 0.200000 0
2.000000 0.200000 0
2.100000 0.200000 0
2.200000 0.200000 0
2.300000 0.200000 0
2.400000 0.200000 0
2.500000 0.200000 0
2.600000 0.200000 0
2.700000 0.200000 0
2.800000 0.200000 0
2.900000 0.200000 0
3.000000 0.200000 0
3.100000 0.200000 0
3.200000 0.200000 0
3.300000 0.200000 0
3.400000 0.200000 0
3.500000 0.200000 0
3.600000 0.200000 0
3.700000 0.200000 0
3.800000 0.200000 0
3.900000 0.200000 0
4.000000 0.200000 0
4.100000 0.200000 0
4.200000 0.200000 0
4.300000 0.200000 0
4.400000 0.200000 0
4.500000 0.200000 0
4.600000 0.200000 0
4.700000 0.200000 0
4.800000 0.200000 0
4.900000 0.200000 0
5.000000 0.200000 0
5.100000 0.200000 0
5.200000 0.200000 0
5.300000 0.200000 0
5.400000 0.200000 0
5.500000 0.200000 0
5.600000 0.200000 0
5.700000 0.200000 0
5.800000 0.200000 0
5.900000 0.200000 0
6.000000 0.200000 0
6.100000 0.200000 0
6.200000 0.200000 0
6.300000 0.200000 0
6.400000 0.200000 0
6.500000 0.200000 0
6.600000 0.200000 0
6.700000 0.200000 0
6.800000 0.200000 0
6.900000 0.200000 0
7.000000 0.200000 0
7.100000 0.200000 0
7.200000 0.200000 0
7.300000 0.200000 0
7.400000 0.200000 0
7.500000 0.200000 0
7.600000 0.200000 0
7.700000 0.200000 0
7.800000 0.200000 0
7.900000 0.200000 0
8.000000 0.200000 0
8.100000 0.200000 0
8.200000 0.200000 0
8.300000 0.200000 0
8.400000 0.200000 0
8.500000 0.200000 0
8.600000 0.200000 0
8.700000 0.200000 0
8.800000 0.200000 0
8.900000 0.200000 0
9.000000 0.200000 0
9.100000 0.200000 0
9.200000 0.200000 0
9.300000 0.200000 0
9.400000 0.200000 0
9.500000 0.200000 0
9.600000 0.200000 0
9.700000 0.200000 0
9.800000 0.200000 0
9.900000 0.200000 0
10.000000 0.200000 0
0.000000 0.300000 0
0.100000 0.300000 0
0.200000 0.300000 0
0.300000 0.300000 0
0.400000 0.300000 0
0.500000 0.300000 0
0.600000 0.300000 0
0.700000 0.300000 0
0.800000 0.300000 0
0.900000 0.300000 0
1.000000 0.300000 0
1.100000 0.300000 0
1.200000 0.300000 0
1.300000 0.300000 0
1.400000 0.300000 0
1.500000 0.300000 0
1.600000 0.300000 0
1.700000 0.300000 0
1.800000 0.300000 0
1.900000 0.300000 0
2.000000 0.300000 0
2.100000 0.300000 0
2.200000 0.300000 0
2.300000 0.300000 0
2.400000 0.300000 0
2.500000 0.300000 0
2.600000 0.300000 0
2.700000 0.300000 0
2.800000 0.300000 0
2.900000 0.300000 0
3.000000 0.300000 0
3.100000 0.300000 0
3.200000 0.300000 0
3.300000 0.300000 0
3.400000 0.300000 0
3.500000 0.300000 0
3.600000 0.300000 0
3.700000 0.300000 0
3.800000 0.300000 0
3.900000 0.300000 0
4.000000 0.300000 0
4.100000 0.300000 0
4.200000 0.300000 0
4.300000 0.300000 0
4.400000 0.300000 0
4.500000 0.300000 0
4.600000 0.300000 0
4.700000 0.300000 0
4.800000 0.300000 0
4.900000 0.300000 0
5.000000 0.300000 0
5.100000 0.300000 0
5.200000 0.300000 0
5.300000 0.300000 0
5.400000 0.300000 0
5.500000 0.300000 0
5.600000 0.300000 0
5.700000 0.300000 0
5.800000 0.300000 0
5.900000 0.300000 0
6.000000 0.300000 0
6.100000 0.300000 0
6.200000 0.300000 0
6.300000 0.300000 0
6.400000 0.300000 0
6.500000 0.300000 0
6.600000 0.300000 0
6.700000 0.300000 0
6.800000 0.300000 0
6.900000 0.300000 0
7.000000 0.300000 0
7.100000 0.300000 0
7.200000 0.300000 0
7.300000 0.300000 0
7.400000 0.300000 0
7.500000 0.300000 0
7.600000 0.300000 0
7.700000 0.300000 0
7.800000 0.300000 0
7.900000 0.300000 0
8.000000 0.300000 0
8.100000 0.300000 0
8.200000 0.300000 0
8.300000 0.300000 0
8.400000 0.300000 0
8.500000 0.300000 0
8.600000 0.300000 0
8.700000 0.300000 0
8.800000 0.300000 0
8.900000 0.300000 0
9.000000 0.300000 0
9.100000 0.300000 0
9.200000 0.300000 0
9.300000 0.300000 0
9.400000 0.300000 0
9.500000 0.300000 0
9.600000 0.300000 0
9.700000 0.300000 0
9.800000 0.300000 0
9.900000 0.300000 0
10.000000 0.300000 0
0.000000 0.400000 0
0.100000 0.400000 0
0.200000 0.400000 0
0.300000 0.400000 0
0.400000 0.400000 0
0.500000 0.400000 0
0.600000 0.400000 0
0.700000 0.400000 0
0.800000 0.400000 0
0.900000 0.400000 0
1.000000 0.400000 0
1.100000 0.400000 0
1.200000 0.400000 0
1.300000 0.400000 0
1.400000 0.400000 0
1.500000 0.400000 0
1.600000 0.400000 0
1.700000 0.400000 0
1.800000 0.400000 0
1.900000 0.400000 0
2.000000 0.400000 0
2.100000 0.400000 0
2.200000 0.400000 0
2.300000 0.400000 0
2.400000 0.400000 0
2.500000 0.400000 0
2.600000 0.400000 0
2.700000 0.400000 0
2.800000 0.400000 0
2.900000 0.400000 0
3.000000 0.400000 0
3.100000 0.400000 0
3.200000 0.400000 0
3.300000 0.400000 0
3.400000 0.400000 0
3.500000 0.400000 0
3.600000 0.400000 0
3.700000 0.400000 0
3.800000 0.400000 0
3.900000 0.400000 0
4.000000 0.400000 0
4.100000 0.400000 0
4.200000 0.400000 0
4.300000 0.400000 0
4.400000 0.400000 0
4.500000 0.400000 0
4.600000 0.400000 0
4.700000 0.400000 0
4.800000 0.400000 0
4.900000 0.400000 0
5.000000 0.400000 0
5.100000 0.400000 0
5.200000 0.400000 0
5.300000 0.400000 0
5.400000 0.400000 0
5.500000 0.400000 0
5.600000 0.400000 0
5.700000 0.400000 0
5.800000 0.400000 0
5.900000 0.400000 0
6.000000 0.400000 0
6.100000 0.400000 0
6.200000 0.400000 0
6.300000 0.400000 0
6.400000 0.400000 0
6.500000 0.400000 0
6.600000 0.400000 0
6.700000 0.400000 0
6.800000 0.400000 0
6.900000 0.400000 0
7.000000 0.400000 0
7.100000 0.400000 0
7.200000 0.400000 0
7.300000 0.400000 0
7.400000 0.400000 0
7.500000 0.400000 0
7.600000 0.400000 0
7.700000 0.400000 0
7.800000 0.400000 0
7.900000 0.400000 0
8.000000 0.400000 0
8.100000 0.400000 0
8.200000 0.400000 0
8.300000 0.400000 0
8.400000 0.400000 0
8.500000 0.400000 0
8.600000 0.400000 0
[...]
POINT_DATA 2121 

VECTORS velocity float
0.500000 0.000000 0
-0.000080 0.000000 0
-0.000245 0.000000 0
-0.000484 0.000000 0
-0.000784 0.000000 0
-0.001120 0.000000 0
-0.001462 0.000000 0
-0.001771 0.000000 0
-0.001989 0.000000 0
-0.002072 0.000000 0
-0.001970 0.000000 0
-0.001634 0.000000 0
-0.000975 0.000000 0
0.000048 0.000000 0
0.001338 0.000000 0
0.002498 0.000000 0
0.003556 0.000000 0
0.004475 0.000000 0
0.005121 0.000000 0
0.005464 0.000000 0
0.005504 0.000000 0
0.005206 0.000000 0
0.004506 0.000000 0
0.003406 0.000000 0
0.002015 0.000000 0
0.000621 0.000000 0
-0.000453 0.000000 0
-0.001055 0.000000 0
-0.001190 0.000000 0
-0.000943 0.000000 0
-0.000413 0.000000 0
0.000301 0.000000 0
0.001034 0.000000 0
0.001602 0.000000 0
0.001916 0.000000 0
0.002034 0.000000 0
0.002206 0.000000 0
0.001314 0.000000 0
-0.001968 0.000000 0
-0.007939 0.000000 0
-0.020516 0.000000 0
-0.015172 0.000000 0
0.015738 0.000000 0
0.044366 0.000000 0
0.000478 0.000000 0
-0.026785 0.000000 0
0.008641 0.000000 0
0.009372 0.000000 0
0.003455 0.000000 0
-0.000667 0.000000 0
-0.004000 0.000000 0
-0.006846 0.000000 0
-0.008832 0.000000 0
-0.009696 0.000000 0
-0.009623 0.000000 0
-0.009003 0.000000 0
-0.008226 0.000000 0
-0.007361 0.000000 0
-0.006837 0.000000 0
-0.008613 0.000000 0
-0.009507 0.000000 0
-0.010215 0.000000 0
-0.010389 0.000000 0
-0.010369 0.000000 0
-0.010161 0.000000 0
-0.009567 0.000000 0
-0.008652 0.000000 0
-0.007616 0.000000 0
-0.006402 0.000000 0
-0.004289 0.000000 0
0.000069 0.000000 0
0.007489 0.000000 0
0.016612 0.000000 0
0.017460 0.000000 0
0.004718 0.000000 0
0.016115 0.000000 0
0.031746 0.000000 0
0.020137 0.000000 0
0.007064 0.000000 0
0.001998 0.000000 0
-0.000160 0.000000 0
-0.001830 0.000000 0
-0.000445 0.000000 0
0.005108 0.000000 0
0.011277 0.000000 0
0.013567 0.000000 0
0.011671 0.000000 0
0.008660 0.000000 0
0.006230 0.000000 0
0.004501 0.000000 0
0.003260 0.000000 0
0.002372 0.000000 0
0.001677 0.000000 0
0.001029 0.000000 0
0.000311 0.000000 0
-0.000481 0.000000 0
-0.001403 0.000000 0
-0.002156 0.000000 0
-0.002859 0.000000 0
-0.003538 0.000000 0
-0.003714 0.000000 0
1.000000 -0.003444 0
1.007405 -0.011165 0
1.023577 -0.020365 0
1.049793 -0.030628 0
1.087120 -0.041267 0
1.135749 -0.051056 0
1.194162 -0.058372 0
1.259250 -0.061248 0
1.324089 -0.058902 0
1.383021 -0.052604 0
1.433442 -0.044185 0
1.473373 -0.034377 0
1.503162 -0.023445 0
1.522812 -0.010907 0
1.530075 0.004148 0
1.520844 0.020300 0
1.492571 0.036104 0
1.447759 0.050602 0
1.389614 0.062031 0
1.322160 0.069021 0
1.250039 0.070565 0
1.179018 0.065908 0
1.115697 0.054929 0
1.066428 0.038638 0
1.036539 0.019580 0
1.027882 0.001617 0
1.036625 -0.011892 0
1.056401 -0.019512 0
1.080788 -0.021249 0
1.103941 -0.017931 0
1.121320 -0.010882 0
1.129905 -0.001658 0
1.128099 0.007827 0
1.116690 0.015601 0
1.098038 0.020569 0
1.074748 0.023023 0
1.049543 0.025415 0
1.026267 0.019576 0
1.012503 -0.008492 0
1.018562 -0.079807 0
1.108214 -0.160939 0
1.279587 -0.107207 0
1.379187 0.159881 0
1.387908 0.387120 0
1.260366 0.241247 0
0.852643 0.045817 0
0.489328 0.082837 0
0.346729 0.078834 0
0.318780 -0.000895 0
0.331647 -0.049923 0
0.367116 -0.073207 0
0.424032 -0.084804 0
0.498307 -0.087987 0
0.582702 -0.083471 0
0.667800 -0.073975 0
0.748851 -0.064254 0
0.823156 -0.056172 0
0.892286 -0.050564 0
0.956363 -0.050838 0
1.016582 -0.058728 0
1.077079 -0.067884 0
1.143522 -0.072737 0
1.214455 -0.075035 0
1.286353 -0.075032 0
1.357043 -0.072953 0
1.424676 -0.067995 0
1.486643 -0.060303 0
1.539989 -0.050973 0
1.581875 -0.039046 0
1.609077 -0.019718 0
1.614400 0.015679 0
1.584252 0.071292 0
1.507467 0.128730 0
1.388079 0.121625 0
1.226258 0.045159 0
1.019299 0.078645 0
0.833439 0.185544 0
0.734861 0.150392 0
0.740340 0.046283 0
0.788046 -0.005584 0
0.830459 -0.027058 0
0.849402 -0.041576 0
0.835394 -0.026906 0
0.781953 0.032529 0
0.688824 0.102916 0
0.578835 0.137708 0
0.478414 0.128520 0
0.398248 0.100364 0
0.335317 0.076067 0
0.284341 0.059570 0
0.242418 0.048516 0
0.206885 0.041541 0
0.174997 0.036798 0
0.145170 0.032871 0
0.116841 0.027803 0
0.095831 0.022710 0
0.071276 0.009185 0
0.077017 0.008994 0
0.058552 -0.003358 0
0.066142 -0.017091 0
0.073124 -0.007246 0
1.000000 -0.007420 0
1.007387 -0.023600 0
1.023870 -0.042402 0
1.050832 -0.063556 0
1.090254 -0.085970 0
1.143336 -0.107057 0
1.208711 -0.123516 0
1.285569 -0.129941 0
1.360311 -0.123786 0
1.424985 -0.109368 0
1.476373 -0.090367 0
1.515574 -0.069735 0
1.545506 -0.049453 0
1.568502 -0.026926 0
1.582312 0.001955 0
1.579361 0.037491 0
1.553324 0.073073 0
1.504840 0.102945 0
1.440368 0.125587 0
1.364852 0.139564 0
1.284354 0.143132 0
1.203962 0.134332 0
1.130595 0.112580 0
1.073970 0.079149 0
1.043054 0.038538 0
1.040659 -0.000094 0
1.058038 -0.028527 0
1.086074 -0.044170 0
1.118163 -0.047547 0
1.148106 -0.040540 0
1.171358 -0.025972 0
1.184773 -0.006785 0
1.184975 0.013208 0
1.173155 0.030054 0
1.153184 0.041937 0
1.128211 0.048489 0
1.099873 0.048475 0
1.075947 0.037035 0
1.070890 0.007700 0
1.070179 -0.095716 0
0.994747 -0.261029 0
0.976171 -0.270977 0
1.058200 -0.108325 0
1.155336 0.118818 0
1.048549 0.535263 0
0.685579 0.771035 0
0.510031 0.505912 0
0.495961 0.170547 0
0.421632 0.015081 0
0.327544 -0.048337 0
0.276196 -0.092386 0
0.278076 -0.131191 0
0.323344 -0.158671 0
0.397828 -0.169494 0
0.487031 -0.166151 0
0.579687 -0.155359 0
0.668264 -0.143437 0
0.753354 -0.133210 0
0.836628 -0.124300 0
0.917498 -0.120721 0
0.992601 -0.126946 0
1.059215 -0.137383 0
1.120733 -0.142839 0
1.184184 -0.142596 0
1.245764 -0.138332 0
1.305026 -0.129611 0
1.360263 -0.115324 0
1.407406 -0.095244 0
1.441602 -0.069101 0
1.458733 -0.032538 0
1.455939 0.024812 0
1.431758 0.106919 0
1.384518 0.196159 0
1.296882 0.281195 0
1.115742 0.368766 0
0.864163 0.392806 0
0.748700 0.284425 0
0.768647 0.093087 0
0.763500 -0.053196 0
0.721213 -0.090130 0
0.694416 -0.061365 0
0.668933 -0.004943 0
0.614030 0.067442 0
0.528718 0.146566 0
0.450904 0.203114 0
0.402980 0.210407 0
0.377789 0.180586 0
0.357500 0.143097 0
0.334690 0.113909 0
0.311999 0.092902 0
0.291966 0.077460 0
0.272550 0.067425 0
0.248093 0.061721 0
0.217094 0.058163 0
0.182942 0.049347 0
0.154240 0.045573 0
0.135030 0.018823 0
0.120345 0.012733 0
0.136638 0.010884 0
0.135008 -0.014563 0
0.142438 -0.014255 0
1.000000 -0.010841 0
1.005505 -0.035047 0
1.020821 -0.063814 0
1.046501 -0.097017 0
1.087003 -0.133776 0
1.145389 -0.169518 0
1.220110 -0.200610 0
1.323318 -0.212853 0
1.414006 -0.198323 0
1.481883 -0.168671 0
1.532388 -0.134780 0
1.568420 -0.103516 0
1.594271 -0.076378 0
1.619913 -0.047718 0
1.644900 -0.006715 0
1.651957 0.049283 0
1.629009 0.110620 0
1.574294 0.163553 0
1.497884 0.202015 0
1.411108 0.225032 0
1.313646 0.231452 0
1.210010 0.219664 0
1.128614 0.184916 0
1.062709 0.126175 0
1.024602 0.052887 0
1.023927 -0.013370 0
1.043507 -0.057311 0
1.073493 -0.079640 0
1.110734 -0.083284 0
1.148477 -0.071129 0
1.182111 -0.047552 0
1.209569 -0.015279 0
1.218758 0.019443 0
1.209028 0.047390 0
1.186916 0.065510 0
1.156886 0.076331 0
1.120062 0.077677 0
1.087622 0.048557 0
1.091696 -0.002727 0
1.082231 -0.003666 0
0.922542 -0.066932 0
0.662455 -0.170660 0
0.469791 -0.019285 0
0.288787 0.396769 0
0.169380 0.711003 0
0.415155 0.584335 0
0.670510 0.272454 0
0.607449 0.167232 0
0.417113 0.167521 0
0.267547 0.095513 0
0.187785 -0.023740 0
0.166414 -0.131952 0
0.193913 -0.207739 0
0.260456 -0.247160 0
0.350316 -0.255835 0
0.444422 -0.245489 0
0.529857 -0.229840 0
0.605591 -0.218930 0
0.676586 -0.214984 0
0.753206 -0.214704 0
0.840727 -0.209605 0
0.930740 -0.200873 0
1.010958 -0.200008 0
1.070178 -0.200067 0
1.119610 -0.193799 0
1.166431 -0.182500 0
1.209944 -0.162689 0
1.246636 -0.132318 0
1.271162 -0.090380 0
1.279439 -0.034061 0
1.273042 0.042648 0
1.256632 0.142706 0
1.220081 0.263600 0
1.130319 0.390395 0
1.040242 0.477873 0
1.008672 0.445682 0
1.008428 0.281056 0
0.960885 0.135588 0
0.865065 0.093714 0
0.770626 0.063497 0
0.687865 0.025219 0
0.602781 0.038807 0
0.513429 0.113308 0
0.434682 0.195654 0
0.396868 0.228652 0
0.401086 0.210823 0
0.425833 0.174000 0
0.450771 0.143464 0
0.465716 0.121569 0
0.464355 0.102296 0
0.441845 0.087968 0
0.399448 0.085416 0
0.342991 0.092257 0
0.285817 0.098025 0
0.239236 0.090660 0
0.201345 0.070626 0
0.197303 0.043084 0
0.181344 0.007390 0
0.191973 -0.018018 0
0.226988 -0.022888 0
0.235834 -0.022306 0
1.000000 -0.012934 0
1.000050 -0.044432 0
1.014724 -0.083402 0
1.035802 -0.129743 0
1.075865 -0.184862 0
1.137916 -0.240168 0
1.223864 -0.301449 0
1.386631 -0.323842 0
1.491864 -0.282356 0
1.550087 -0.227755 0
1.592433 -0.176910 0
1.618234 -0.131623 0
1.627167 -0.100951 0
1.649700 -0.077561 0
1.700908 -0.030095 0
1.736868 0.053377 0
1.729070 0.150732 0
1.672821 0.234066 0
1.572545 0.288769 0
1.446688 0.323798 0
1.326210 0.344225 0
1.222775 0.319361 0
1.093911 0.259878 0
1.003882 0.183156 0
0.934828 0.077316 0
0.926945 -0.019003 0
0.932858 -0.078096 0
0.930896 -0.111400 0
0.942266 -0.122534 0
0.986418 -0.111920 0
1.056068 -0.087067 0
1.119118 -0.043435 0
1.162368 0.013747 0
1.180486 0.061893 0
1.185278 0.094077 0
1.177187 0.115341 0
1.157197 0.117736 0
1.126849 0.065399 0
1.040709 0.013089 0
0.911007 0.073437 0
0.848584 0.158746 0
0.726094 0.181772 0
0.529270 0.265342 0
0.449945 0.419229 0
0.619891 0.408894 0
0.895895 0.269904 0
0.771606 0.313617 0
0.464481 0.423943 0
0.284956 0.354983 0
0.220460 0.180990 0
0.190775 0.008747 0
0.172924 -0.137320 0
0.176702 -0.252713 0
0.217179 -0.325897 0
0.297017 -0.350119 0
0.397689 -0.334902 0
0.494034 -0.304608 0
0.569090 -0.279940 0
0.618630 -0.271917 0
0.658984 -0.284866 0
0.712173 -0.304484 0
0.794533 -0.307618 0
0.891377 -0.282280 0
0.971974 -0.251253 0
1.026530 -0.234590 0
1.057209 -0.219950 0
1.081410 -0.195534 0
1.100392 -0.156468 0
1.112043 -0.101911 0
1.110057 -0.034424 0
1.091704 0.047613 0
1.057714 0.159873 0
1.011589 0.322466 0
0.971023 0.461029 0
0.977770 0.490407 0
1.021498 0.424614 0
1.034152 0.332208 0
0.976052 0.236446 0
0.920315 0.137060 0
0.884484 0.087067 0
0.796254 0.106476 0
0.659162 0.169490 0
0.523567 0.235539 0
0.448090 0.263125 0
0.432114 0.236710 0
0.446101 0.181442 0
0.465003 0.130901 0
0.481376 0.103215 0
0.491652 0.100326 0
0.482819 0.116775 0
0.447341 0.142369 0
0.392305 0.166282 0
0.335961 0.175355 0
0.294967 0.161922 0
0.279574 0.133823 0
0.282831 0.087509 0
0.295858 0.038827 0
0.318073 0.018067 0
0.331325 -0.034757 0
0.337159 -0.058420 0
0.343427 -0.032144 0
1.000000 -0.010900 0
1.000459 -0.049781 0
1.006031 -0.099569 0
1.013503 -0.158161 0
1.052444 -0.235894 0
1.106228 -0.317522 0
1.211766 -0.449330 0
1.484780 -0.480858 0
1.558473 -0.361784 0
1.552339 -0.269246 0
1.555901 -0.202933 0
1.560562 -0.138255 0
1.521942 -0.107848 0
1.501537 -0.121465 0
1.599881 -0.093889 0
1.706589 0.021117 0
1.758319 0.174662 0
1.751055 0.320074 0
1.688449 0.428144 0
1.563952 0.471362 0
1.398270 0.455361 0
1.196311 0.451958 0
0.923744 0.403806 0
0.674080 0.285254 0
0.541377 0.129820 0
0.597352 -0.011404 0
0.574671 -0.061265 0
0.476487 -0.089051 0
0.428979 -0.138810 0
0.466012 -0.184934 0
0.580425 -0.180255 0
0.734025 -0.121582 0
0.880861 -0.041928 0
0.996414 0.024477 0
1.069250 0.068807 0
1.100873 0.104409 0
1.110630 0.128012 0
1.100345 0.165043 0
1.012113 0.213113 0
0.846907 0.188457 0
0.793787 0.117980 0
0.855066 0.148653 0
0.944766 0.256862 0
1.051984 0.306147 0
1.132448 0.265052 0
0.923966 0.432619 0
0.535597 0.703867 0
0.367323 0.653882 0
0.385953 0.411543 0
0.446021 0.189692 0
0.473093 0.023795 0
0.448184 -0.117880 0
0.396353 -0.251995 0
0.354009 -0.367476 0
0.357223 -0.436347 0
0.412654 -0.442508 0
0.512765 -0.401243 0
0.615590 -0.343528 0
0.686082 -0.304881 0
0.717744 -0.308251 0
0.731496 -0.345157 0
0.761167 -0.380081 0
0.826561 -0.377453 0
0.913878 -0.335225 0
0.978070 -0.279040 0
1.001909 -0.237385 0
0.999728 -0.205877 0
0.990087 -0.162956 0
0.979860 -0.100050 0
0.961596 -0.013727 0
0.926120 0.094985 0
0.878546 0.222815 0
0.848319 0.350284 0
0.886121 0.424209 0
0.962168 0.427393 0
1.026283 0.389295 0
1.056192 0.326496 0
1.072630 0.249420 0
1.052803 0.185278 0
0.928284 0.187555 0
0.765381 0.250539 0
0.621262 0.311492 0
0.530377 0.324378 0
0.504698 0.287106 0
0.516650 0.230641 0
0.531645 0.177934 0
0.530505 0.138726 0
0.511415 0.116816 0
0.480212 0.120127 0
0.445484 0.146609 0
0.417089 0.178484 0
0.403684 0.196798 0
0.411429 0.189597 0
0.438306 0.154416 0
0.479445 0.102799 0
0.530409 0.054344 0
0.572761 0.007845 0
0.610879 -0.028073 0
0.652737 -0.037101 0
0.648939 -0.034986 0
0.655888 -0.034817 0
1.000000 -0.013401 0
1.003582 -0.050472 0
0.997868 -0.096449 0
0.990740 -0.176159 0
1.018896 -0.277591 0
1.028968 -0.399494 0
1.182574 -0.680005 0
1.504114 -0.670554 0
1.373936 -0.349921 0
1.222778 -0.225189 0
1.103208 -0.185138 0
1.138789 -0.097670 0
1.062043 -0.041931 0
0.767901 -0.155505 0
0.995781 -0.235151 0
1.322790 -0.105065 0
1.454917 0.106262 0
1.539000 0.303931 0
1.595582 0.475867 0
1.589574 0.613972 0
1.488916 0.711862 0
1.295678 0.793884 0
1.125859 0.782105 0
0.890482 0.565519 0
0.519349 0.154041 0
0.275400 -0.052301 0
0.133101 0.042765 0
0.011655 0.034289 0
-0.044886 -0.112064 0
-0.028285 -0.263369 0
0.063616 -0.355083 0
0.236089 -0.343875 0
0.459098 -0.248646 0
0.665542 -0.126498 0
0.815711 -0.010385 0
0.921808 0.073958 0
0.991634 0.118261 0
1.010450 0.163914 0
0.996796 0.266525 0
0.962356 0.291761 0
0.909702 0.150585 0
0.876230 0.030791 0
0.942236 0.068422 0
1.000264 0.231547 0
0.858090 0.536911 0
0.491194 0.866754 0
0.369220 0.870259 0
0.466515 0.573586 0
0.585311 0.276284 0
0.674722 0.093850 0
0.744158 0.006583 0
0.793724 -0.060581 0
0.803038 -0.158540 0
0.758985 -0.286769 0
0.663957 -0.408766 0
0.571124 -0.490446 0
0.556832 -0.507546 0
0.616479 -0.453260 0
0.700350 -0.374074 0
0.762081 -0.330282 0
0.784231 -0.347911 0
0.787063 -0.402687 0
0.810630 -0.434996 0
0.872576 -0.402766 0
0.941762 -0.322627 0
0.981975 -0.241613 0
0.977388 -0.183718 0
0.946750 -0.136605 0
0.909127 -0.073426 0
0.875259 0.019310 0
0.843558 0.130658 0
0.827180 0.237668 0
0.850020 0.314885 0
0.921411 0.347174 0
0.999068 0.350240 0
1.073837 0.330585 0
1.133680 0.285856 0
1.134600 0.239830 0
1.018817 0.281401 0
0.843769 0.374486 0
0.696023 0.413496 0
0.611374 0.404492 0
0.589384 0.352101 0
0.601523 0.276850 0
0.623429 0.209763 0
0.638135 0.167587 0
0.637417 0.151131 0
0.619028 0.153509 0
0.589889 0.166258 0
0.569920 0.179899 0
0.575412 0.184171 0
0.612782 0.171944 0
0.672946 0.140736 0
0.743232 0.093909 0
0.802961 0.041723 0
0.847768 -0.005804 0
0.885729 -0.041640 0
0.908999 -0.061906 0
0.926150 -0.072813 0
0.943195 -0.061567 0
0.951287 -0.045810 0
1.000000 -0.014488 0
1.000064 -0.047657 0
0.990743 -0.086730 0
0.978537 -0.179192 0
0.967591 -0.274125 0
0.942905 -0.481204 0
1.020045 -0.924480 0
0.732370 -0.591770 0
-0.001411 0.000000 0
0.000145 0.000000 0
0.356922 -0.120425 0
0.269702 -0.097095 0
0.038762 0.263034 0
0.046369 -0.055208 0
0.152151 -0.648783 0
0.596120 -0.438024 0
0.802491 -0.041554 0
1.112591 0.179405 0
1.245944 0.377567 0
1.336118 0.578024 0
1.374266 0.749252 0
1.372533 0.815011 0
1.321225 0.808997 0
1.134833 0.891760 0
0.889738 0.744898 0
0.499782 0.374840 0
0.158359 0.202477 0
0.023097 0.088932 0
-0.014027 -0.098874 0
-0.021132 -0.293439 0
-0.010166 -0.444633 0
0.045491 -0.517067 0
0.182531 -0.471384 0
0.373337 -0.332140 0
0.564628 -0.187462 0
0.737609 -0.071516 0
0.860592 0.039367 0
0.911648 0.159879 0
0.926545 0.261205 0
0.980912 0.275549 0
0.984026 0.204103 0
0.880541 0.116117 0
0.734944 0.132828 0
0.583752 0.390292 0
0.402191 0.774120 0
0.370777 0.921488 0
0.549629 0.728546 0
0.712950 0.437790 0
0.791518 0.203335 0
0.838185 0.030844 0
0.894064 -0.095208 0
0.965743 -0.176760 0
1.025426 -0.217258 0
1.050380 -0.228396 0
1.031629 -0.248488 0
0.970098 -0.335386 0
0.839346 -0.446600 0
0.680122 -0.487049 0
0.628062 -0.450486 0
0.647521 -0.392135 0
0.683807 -0.370143 0
0.712632 -0.406483 0
0.735537 -0.462971 0
0.788044 -0.466361 0
0.874011 -0.388444 0
0.950252 -0.273016 0
0.979972 -0.170657 0
0.964413 -0.094702 0
0.926136 -0.028566 0
0.889250 0.051837 0
0.873396 0.143058 0
0.882239 0.216347 0
0.907834 0.256048 0
0.949976 0.275155 0
1.012121 0.274962 0
1.079712 0.254677 0
1.088186 0.265729 0
0.992592 0.364279 0
0.818346 0.476104 0
0.699619 0.510345 0
0.641925 0.482931 0
0.635047 0.418128 0
0.659624 0.334226 0
0.691170 0.253060 0
0.715320 0.194028 0
0.728847 0.163945 0
0.735203 0.157833 0
0.741339 0.164345 0
0.758591 0.169237 0
0.791420 0.161087 0
0.837893 0.135624 0
0.889068 0.099266 0
0.943193 0.059149 0
0.992559 0.024403 0
1.029252 -0.001733 0
1.052477 -0.028420 0
1.065373 -0.053383 0
1.072404 -0.068491 0
1.077021 -0.071294 0
1.075697 -0.060120 0
1.081940 -0.050850 0
1.000000 -0.013470 0
1.001133 -0.041221 0
0.970772 -0.074924 0
0.987146 -0.153009 0
0.879099 -0.241962 0
0.918653 -0.451950 0
0.545309 -0.549926 0
0.000000 0.002212 0
-0.585001 0.236314 0
-0.462755 0.000000 0
0.000000 0.000000 0
-0.127005 0.213906 0
-0.101005 0.181397 0
0.034789 -0.268898 0
-0.199261 -0.784907 0
-0.201024 -0.755410 0
0.112047 -0.410214 0
0.751694 -0.139527 0
0.952745 0.252336 0
1.005240 0.485646 0
1.047886 0.675442 0
1.066046 0.846919 0
1.013112 1.019802 0
0.958676 0.997002 0
0.984890 0.789087 0
0.747995 0.679074 0
0.439901 0.519447 0
0.305226 0.206672 0
0.259137 -0.067839 0
0.254816 -0.267234 0
0.254774 -0.421710 0
0.237780 -0.536575 0
0.236205 -0.576495 0
0.312415 -0.508598 0
0.446014 -0.374660 0
0.592770 -0.222010 0
0.713206 -0.055781 0
0.799456 0.097959 0
0.871960 0.197259 0
0.936656 0.234279 0
0.943032 0.250955 0
0.869078 0.279871 0
0.706893 0.365210 0
0.544555 0.564298 0
0.530118 0.749885 0
0.702266 0.719315 0
0.891174 0.528085 0
1.010494 0.331697 0
1.083303 0.151049 0
1.136454 -0.008697 0
1.172216 -0.120976 0
1.185592 -0.191945 0
1.181254 -0.243177 0
1.166361 -0.292973 0
1.161198 -0.328486 0
1.160687 -0.298165 0
1.107589 -0.217573 0
0.977753 -0.241978 0
0.791060 -0.341475 0
0.636249 -0.386031 0
0.586662 -0.413026 0
0.605007 -0.454421 0
0.632663 -0.510412 0
0.672954 -0.541245 0
0.757130 -0.484840 0
0.868171 -0.347579 0
0.948313 -0.197886 0
0.973637 -0.082775 0
0.964801 0.001732 0
0.951503 0.072045 0
0.949102 0.137662 0
0.956164 0.203224 0
0.962153 0.247142 0
0.963831 0.242882 0
0.985546 0.220499 0
0.981018 0.254515 0
0.890835 0.372972 0
0.750555 0.509666 0
0.661668 0.574370 0
0.633841 0.550904 0
0.651171 0.478064 0
0.695046 0.386791 0
0.745635 0.295977 0
0.788556 0.221153 0
0.819333 0.172084 0
0.841807 0.147703 0
0.864490 0.138640 0
0.893714 0.130121 0
0.930543 0.116178 0
0.971854 0.100599 0
1.011605 0.086526 0
1.041811 0.066646 0
1.063584 0.037247 0
1.076686 0.007853 0
1.088026 -0.018191 0
1.098250 -0.041922 0
1.103992 -0.061565 0
1.106490 -0.073551 0
1.108283 -0.076104 0
1.111492 -0.066484 0
1.118032 -0.058350 0
1.000000 -0.015625 0
0.986360 -0.018434 0
0.978313 -0.072745 0
0.942116 -0.087520 0
0.895571 -0.205633 0
0.797027 -0.147415 0
0.472175 -0.072539 0
0.373593 -0.113173 0
0.000000 0.000000 0
0.000000 0.000000 0
0.000000 0.000000 0
0.000000 0.000000 0
0.216577 0.103907 0
0.175636 0.043043 0
-0.074696 -0.412974 0
-0.587555 -0.749337 0
-0.148248 -0.994276 0
0.279675 -0.661298 0
0.648809 0.124016 0
0.777068 0.482879 0
0.847017 0.688442 0
0.875540 0.849782 0
0.908043 0.916363 0
0.961778 0.919978 0
0.875483 0.955574 0
0.641082 0.919825 0
0.500116 0.645242 0
0.404207 0.269692 0
0.346829 -0.048467 0
0.349436 -0.289080 0
0.401786 -0.427601 0
0.456803 -0.498501 0
0.475466 -0.546021 0
0.474796 -0.541952 0
0.502672 -0.467820 0
0.565255 -0.338711 0
0.651138 -0.167322 0
0.746259 0.001123 0
0.831751 0.124004 0
0.888076 0.204475 0
0.909492 0.271679 0
0.905336 0.352254 0
0.877670 0.457350 0
0.869590 0.567065 0
0.963379 0.616407 0
1.120087 0.560431 0
1.244891 0.420317 0
1.334403 0.245661 0
1.407262 0.077374 0
1.448884 -0.058071 0
1.459245 -0.144347 0
1.440107 -0.185800 0
1.391698 -0.198028 0
1.310940 -0.208341 0
1.203762 -0.242815 0
1.105138 -0.281779 0
1.075013 -0.263668 0
1.097619 -0.170522 0
1.043441 -0.108986 0
0.948650 -0.187741 0
0.855139 -0.338905 0
0.763765 -0.452488 0
0.706249 -0.530923 0
0.681284 -0.590834 0