# vtk DataFile Version 2.0
generated by CFD-lab course output (written by Tobias Neckel) 
ASCII

DATASET STRUCTURED_GRID
DIMENSIONS  101 21 1 
POINTS 2121 float

0.000000 0.000000 0
0.100000 0.000000 0
0.200000 0.000000 0
0.300000 0.000000 0
0.400000 0.000000 0
0.500000 0.000000 0
0.600000 0.000000 0
0.700000 0.000000 0
0.800000 0.000000 0
0.900000 0.000000 0
1.000000 0.000000 0
1.100000 0.000000 0
1.200000 0.000000 0
1.300000 0.000000 0
1.400000 0.000000 0
1.500000 0.000000 0
1.600000 0.000000 0
1.700000 0.000000 0
1.800000 0.000000 0
1.900000 0.000000 0
2.000000 0.000000 0
2.100000 0.000000 0
2.200000 0.000000 0
2.300000 0.000000 0
2.400000 0.000000 0
2.500000 0.000000 0
2.600000 0.000000 0
2.700000 0.000000 0
2.800000 0.000000 0
2.900000 0.000000 0
3.000000 0.000000 0
3.100000 0.000000 0
3.200000 0.000000 0
3.300000 0.000000 0
3.400000 0.000000 0
3.500000 0.000000 0
3.600000 0.000000 0
3.700000 0.000000 0
3.800000 0.000000 0
3.900000 0.000000 0
4.000000 0.000000 0
4.100000 0.000000 0
4.200000 0.000000 0
4.300000 0.000000 0
4.400000 0.000000 0
4.500000 0.000000 0
4.600000 0.000000 0
4.700000 0.000000 0
4.800000 0.000000 0
4.900000 0.000000 0
5.000000 0.000000 0
5.100000 0.000000 0
5.200000 0.000000 0
5.300000 0.000000 0
5.400000 0.000000 0
5.500000 0.000000 0
5.600000 0.000000 0
5.700000 0.000000 0
5.800000 0.000000 0
5.900000 0.000000 0
6.000000 0.000000 0
6.100000 0.000000 0
6.200000 0.000000 0
6.300000 0.000000 0
6.400000 0.000000 0
6.500000 0.000000 0
6.600000 0.000000 0
6.700000 0.000000 0
6.800000 0.000000 0
6.900000 0.000000 0
7.000000 0.000000 0
7.100000 0.000000 0
7.200000 0.000000 0
7.300000 0.000000 0
7.400000 0.000000 0
7.500000 0.000000 0
7.600000 0.000000 0
7.700000 0.000000 0
7.800000 0.000000 0
7.900000 0.000000 0
8.000000 0.000000 0
8.100000 0.000000 0
8.200000 0.000000 0
8.300000 0.000000 0
8.400000 0.000000 0
8.500000 0.000000 0
8.600000 0.000000 0
8.700000 0.000000 0
8.800000 0.000000 0
8.900000 0.000000 0
9.000000 0.000000 0
9.100000 0.000000 0
9.200000 0.000000 0
9.300000 0.000000 0
9.400000 0.000000 0
9.500000 0.000000 0
9.600000 0.000000 0
9.700000 0.000000 0
9.800000 0.000000 0
9.900000 0.000000 0
10.000000 0.000000 0
0.000000 0.100000 0
0.100000 0.100000 0
0.200000 0.100000 0
0.300000 0.100000 0
0.400000 0.100000 0
0.500000 0.100000 0
0.600000 0.100000 0
0.700000 0.100000 0
0.800000 0.100000 0
0.900000 0.100000 0
1.000000 0.100000 0
1.100000 0.100000 0
1.200000 0.100000 0
1.300000 0.100000 0
1.400000 0.100000 0
1.500000 0.100000 0
1.600000 0.100000 0
1.700000 0.100000 0
1.800000 0.100000 0
1.900000 0.100000 0
2.000000 0.100000 0
2.100000 0.100000 0
2.200000 0.100000 0
2.300000 0.100000 0
2.400000 0.100000 0
2.500000 0.100000 0
2.600000 0.100000 0
2.700000 0.100000 0
2.800000 0.100000 0
2.900000 0.100000 0
3.000000 0.100000 0
3.100000 0.100000 0
3.200000 0.100000 0
3.300000 0.100000 0
3.400000 0.100000 0
3.500000 0.100000 0
3.600000 0.100000 0
3.700000 0.100000 0
3.800000 0.100000 0
3.900000 0.100000 0
4.000000 0.100000 0
4.100000 0.100000 0
4.200000 0.100000 0
4.300000 0.100000 0
4.400000 0.100000 0
4.500000 0.100000 0
4.600000 0.100000 0
4.700000 0.100000 0
4.800000 0.100000 0
4.900000 0.100000 0
5.000000 0.100000 0
5.100000 0.100000 0
5.200000 0.100000 0
5.300000 0.100000 0
5.400000 0.100000 0
5.500000 0.100000 0
5.600000 0.100000 0
5.700000 0.100000 0
5.800000 0.100000 0
5.900000 0.100000 0
6.000000 0.100000 0
6.100000 0.100000 0
6.200000 0.100000 0
6.300000 0.100000 0
6.400000 0.100000 0
6.500000 0.100000 0
6.600000 0.100000 0
6.700000 0.100000 0
6.800000 0.100000 0
6.900000 0.100000 0
7.000000 0.100000 0
7.100000 0.100000 0
7.200000 0.100000 0
7.300000 0.100000 0
7.400000 0.100000 0
7.500000 0.100000 0
7.600000 0.100000 0
7.700000 0.100000 0
7.800000 0.100000 0
7.900000 0.100000 0
8.000000 0.100000 0
8.100000 0.100000 0
8.200000 0.100000 0
8.300000 0.100000 0
8.400000 0.100000 0
8.500000 0.100000 0
8.600000 0.100000 0
8.700000 0.100000 0
8.800000 0.100000 0
8.900000 0.100000 0
9.000000 0.100000 0
9.100000 0.100000 0
9.200000 0.100000 0
9.300000 0.100000 0
9.400000 0.100000 0
9.500000 0.100000 0
9.600000 0.100000 0
9.700000 0.100000 0
9.800000 0.100000 0
9.900000 0.100000 0
10.000000 0.100000 0
0.000000 0.200000 0
0.100000 0.200000 0
0.200000 0.200000 0
0.300000 0.200000 0
0.400000 0.200000 0
0.500000 0.200000 0
0.600000 0.200000 0
0.700000 0.200000 0
0.800000 0.200000 0
0.900000 0.200000 0
1.000000 0.200000 0
1.100000 0.200000 0
1.200000 0.200000 0
1.300000 0.200000 0
1.400000 0.200000 0
1.500000 0.200000 0
1.600000 0.200000 0
1.700000 0.200000 0
1.800000 0.200000 0
1.900000 0.200000 0
2.000000 0.200000 0
2.100000 0.200000 0
2.200000 0.200000 0
2.300000 0.200000 0
2.400000 0.200000 0
2.500000 0.200000 0
2.600000 0.200000 0
2.700000 0.200000 0
2.800000 0.200000 0
2.900000 0.200000 0
3.000000 0.200000 0
3.100000 0.200000 0
3.200000 0.200000 0
3.300000 0.200000 0
3.400000 0.200000 0
3.500000 0.200000 0
3.600000 0.200000 0
3.700000 0.200000 0
3.800000 0.200000 0
3.900000 0.200000 0
4.000000 0.200000 0
4.100000 0.200000 0
4.200000 0.200000 0
4.300000 0.200000 0
4.400000 0.200000 0
4.500000 0.200000 0
4.600000 0.200000 0
4.700000 0.200000 0
4.800000 0.200000 0
4.900000 0.200000 0
5.000000 0.200000 0
5.100000 0.200000 0
5.200000 0.200000 0
5.300000 0.200000 0
5.400000 0.200000 0
5.500000 0.200000 0
5.600000 0.200000 0
5.700000 0.200000 0
5.800000 0.200000 0
5.900000 0.200000 0
6.000000 0.200000 0
6.100000 0.200000 0
6.200000 0.200000 0
6.300000 0.200000 0
6.400000 0.200000 0
6.500000 0.200000 0
6.600000 0.200000 0
6.700000 0.200000 0
6.800000 0.200000 0
6.900000 0.200000 0
7.000000 0.200000 0
7.100000 0.200000 0
7.200000 0.200000 0
7.300000 0.200000 0
7.400000 0.200000 0
7.500000 0.200000 0
7.600000 0.200000 0
7.700000 0.200000 0
7.800000 0.200000 0
7.900000 0.200000 0
8.000000 0.200000 0
8.100000 0.200000 0
8.200000 0.200000 0
8.300000 0.200000 0
8.400000 0.200000 0
8.500000 0.200000 0
8.600000 0.200000 0
8.700000 0.200000 0
8.800000 0.200000 0
8.900000 0.200000 0
9.000000 0.200000 0
9.100000 0.200000 0
9.200000 0.200000 0
9.300000 0.200000 0
9.400000 0.200000 0
9.500000 0.200000 0
9.600000 0.200000 0
9.700000 0.200000 0
9.800000 0.200000 0
9.900000 0.200000 0
10.000000 0.200000 0
0.000000 0.300000 0
0.100000 0.300000 0
0.200000 0.300000 0
0.300000 0.300000 0
0.400000 0.300000 0
0.500000 0.300000 0
0.600000 0.300000 0
0.700000 0.300000 0
0.800000 0.300000 0
0.900000 0.300000 0
1.000000 0.300000 0
1.100000 0.300000 0
1.200000 0.300000 0
1.300000 0.300000 0
1.400000 0.300000 0
1.500000 0.300000 0
1.600000 0.300000 0
1.700000 0.300000 0
1.800000 0.300000 0
1.900000 0.300000 0
2.000000 0.300000 0
2.100000 0.300000 0
2.200000 0.300000 0
2.300000 0.300000 0
2.400000 0.300000 0
2.500000 0.300000 0
2.600000 0.300000 0
2.700000 0.300000 0
2.800000 0.300000 0
2.900000 0.300000 0
3.000000 0.300000 0
3.100000 0.300000 0
3.200000 0.300000 0
3.300000 0.300000 0
3.400000 0.300000 0
3.500000 0.300000 0
3.600000 0.300000 0
3.700000 0.300000 0
3.800000 0.300000 0
3.900000 0.300000 0
4.000000 0.300000 0
4.100000 0.300000 0
4.200000 0.300000 0
4.300000 0.300000 0
4.400000 0.300000 0
4.500000 0.300000 0
4.600000 0.300000 0
4.700000 0.300000 0
4.800000 0.300000 0
4.900000 0.300000 0
5.000000 0.300000 0
5.100000 0.300000 0
5.200000 0.300000 0
5.300000 0.300000 0
5.400000 0.300000 0
5.500000 0.300000 0
5.600000 0.300000 0
5.700000 0.300000 0
5.800000 0.300000 0
5.900000 0.300000 0
6.000000 0.300000 0
6.100000 0.300000 0
6.200000 0.300000 0
6.300000 0.300000 0
6.400000 0.300000 0
6.500000 0.300000 0
6.600000 0.300000 0
6.700000 0.300000 0
6.800000 0.300000 0
6.900000 0.300000 0
7.000000 0.300000 0
7.100000 0.300000 0
7.200000 0.300000 0
7.300000 0.300000 0
7.400000 0.300000 0
7.500000 0.300000 0
7.600000 0.300000 0
7.700000 0.300000 0
7.800000 0.300000 0
7.900000 0.300000 0
8.000000 0.300000 0
8.100000 0.300000 0
8.200000 0.300000 0
8.300000 0.300000 0
8.400000 0.300000 0
8.500000 0.300000 0
8.600000 0.300000 0
8.700000 0.300000 0
8.800000 0.300000 0
8.900000 0.300000 0
9.000000 0.300000 0
9.100000 0.300000 0
9.200000 0.300000 0
9.300000 0.300000 0
9.400000 0.300000 0
9.500000 0.300000 0
9.600000 0.300000 0
9.700000 0.300000 0
9.800000 0.300000 0
9.900000 0.300000 0
10.000000 0.300000 0
0.000000 0.400000 0
0.100000 0.400000 0
0.200000 0.400000 0
0.300000 0.400000 0
0.400000 0.400000 0
0.500000 0.400000 0
0.600000 0.400000 0
0.700000 0.400000 0
0.800000 0.400000 0
0.900000 0.400000 0
1.000000 0.400000 0
1.100000 0.400000 0
1.200000 0.400000 0
1.300000 0.400000 0
1.400000 0.400000 0
1.500000 0.400000 0
1.600000 0.400000 0
1.700000 0.400000 0
1.800000 0.400000 0
1.900000 0.400000 0
2.000000 0.400000 0
2.100000 0.400000 0
2.200000 0.400000 0
2.300000 0.400000 0
2.400000 0.400000 0
2.500000 0.400000 0
2.600000 0.400000 0
2.700000 0.400000 0
2.800000 0.400000 0
2.900000 0.400000 0
3.000000 0.400000 0
3.100000 0.400000 0
3.200000 0.400000 0
3.300000 0.400000 0
3.400000 0.400000 0
3.500000 0.400000 0
3.600000 0.400000 0
3.700000 0.400000 0
3.800000 0.400000 0
3.900000 0.400000 0
4.000000 0.400000 0
4.100000 0.400000 0
4.200000 0.400000 0
4.300000 0.400000 0
4.400000 0.400000 0
4.500000 0.400000 0
4.600000 0.400000 0
4.700000 0.400000 0
4.800000 0.400000 0
4.900000 0.400000 0
5.000000 0.400000 0
5.100000 0.400000 0
5.200000 0.400000 0
5.300000 0.400000 0
5.400000 0.400000 0
5.500000 0.400000 0
5.600000 0.400000 0
5.700000 0.400000 0
5.800000 0.400000 0
5.900000 0.400000 0
6.000000 0.400000 0
6.100000 0.400000 0
6.200000 0.400000 0
6.300000 0.400000 0
6.400000 0.400000 0
6.500000 0.400000 0
6.600000 0.400000 0
6.700000 0.400000 0
6.800000 0.400000 0
6.900000 0.400000 0
7.000000 0.400000 0
7.100000 0.400000 0
7.200000 0.400000 0
7.300000 0.400000 0
7.400000 0.400000 0
7.500000 0.400000 0
7.600000 0.400000 0
7.700000 0.400000 0
7.800000 0.400000 0
7.900000 0.400000 0
8.000000 0.400000 0
8.100000 0.400000 0
8.200000 0.400000 0
8.300000 0.400000 0
8.400000 0.400000 0
8.500000 0.400000 0
8.600000 0.400000 0
[...]
POINT_DATA 2121 

VECTORS velocity float
0.500000 0.000000 0
0.000082 0.000000 0
0.000226 0.000000 0
0.000428 0.000000 0
0.000673 0.000000 0
0.000934 0.000000 0
0.001176 0.000000 0
0.001384 0.000000 0
0.001539 0.000000 0
0.001593 0.000000 0
0.001483 0.000000 0
0.001156 0.000000 0
0.000582 0.000000 0
-0.000258 0.000000 0
-0.001424 0.000000 0
-0.003020 0.000000 0
-0.005151 0.000000 0
-0.007824 0.000000 0
-0.010849 0.000000 0
-0.013728 0.000000 0
-0.016073 0.000000 0
-0.015812 0.000000 0
-0.012036 0.000000 0
-0.006189 0.000000 0
0.000005 0.000000 0
0.005292 0.000000 0
0.009156 0.000000 0
0.011360 0.000000 0
0.012257 0.000000 0
0.012343 0.000000 0
0.011635 0.000000 0
0.009925 0.000000 0
0.007681 0.000000 0
0.007487 0.000000 0
0.009847 0.000000 0
0.009212 0.000000 0
0.002954 0.000000 0
-0.002638 0.000000 0
-0.001206 0.000000 0
0.000337 0.000000 0
0.000070 0.000000 0
-0.001119 0.000000 0
-0.001264 0.000000 0
-0.001121 0.000000 0
-0.001070 0.000000 0
-0.001132 0.000000 0
-0.001179 0.000000 0
-0.001184 0.000000 0
-0.001161 0.000000 0
-0.001127 0.000000 0
-0.001089 0.000000 0
-0.001053 0.000000 0
-0.001019 0.000000 0
-0.000982 0.000000 0
-0.000940 0.000000 0
-0.000900 0.000000 0
-0.000865 0.000000 0
-0.000827 0.000000 0
-0.000781 0.000000 0
-0.000733 0.000000 0
-0.000696 0.000000 0
-0.000669 0.000000 0
-0.000636 0.000000 0
-0.000587 0.000000 0
-0.000538 0.000000 0
-0.000508 0.000000 0
-0.000501 0.000000 0
-0.000493 0.000000 0
-0.000462 0.000000 0
-0.000403 0.000000 0
-0.000345 0.000000 0
-0.000320 0.000000 0
-0.000340 0.000000 0
-0.000384 0.000000 0
-0.000407 0.000000 0
-0.000371 0.000000 0
-0.000338 0.000000 0
-0.000312 0.000000 0
-0.000291 0.000000 0
-0.000276 0.000000 0
-0.000264 0.000000 0
-0.000255 0.000000 0
-0.000249 0.000000 0
-0.000244 0.000000 0
-0.000240 0.000000 0
-0.000237 0.000000 0
-0.000235 0.000000 0
-0.000233 0.000000 0
-0.000232 0.000000 0
-0.000231 0.000000 0
-0.000230 0.000000 0
-0.000229 0.000000 0
-0.000229 0.000000 0
-0.000228 0.000000 0
-0.000228 0.000000 0
-0.000228 0.000000 0
-0.000228 0.000000 0
-0.000227 0.000000 0
-0.000228 0.000000 0
-0.000228 0.000000 0
-0.000229 0.000000 0
1.000000 -0.004192 0
1.009007 -0.012744 0
1.026947 -0.021458 0
1.053830 -0.029920 0
1.089329 -0.037482 0
1.132421 -0.043040 0
1.180627 -0.044971 0
1.229532 -0.041301 0
1.270942 -0.031491 0
1.298391 -0.017441 0
1.309135 -0.001843 0
1.303361 0.013107 0
1.282948 0.025964 0
1.250581 0.035662 0
1.209681 0.040958 0
1.165030 0.040110 0
1.123425 0.030841 0
1.094396 0.010640 0
1.091486 -0.021586 0
1.130104 -0.062594 0
1.218414 -0.103079 0
1.348048 -0.126339 0
1.490343 -0.119985 0
1.610102 -0.087031 0
1.681919 -0.039848 0
1.698785 0.008350 0
1.667647 0.048562 0
1.601346 0.076081 0
1.513633 0.091681 0
1.416941 0.098599 0
1.321023 0.097101 0
1.230103 0.086170 0
1.146012 0.070916 0
1.077632 0.070998 0
1.040754 0.089228 0
1.001868 0.085508 0
0.952343 0.041968 0
0.897515 0.000727 0
0.851631 -0.005786 0
0.826182 0.002612 0
0.810739 0.001810 0
0.812595 -0.004832 0
0.822480 -0.008188 0
0.830131 -0.007993 0
0.836353 -0.007545 0
0.843316 -0.007661 0
0.851330 -0.007868 0
0.859629 -0.007832 0
0.867693 -0.007585 0
0.875350 -0.007235 0
0.882613 -0.006860 0
0.889539 -0.006513 0
0.896149 -0.006198 0
0.902439 -0.005870 0
0.908425 -0.005513 0
0.914132 -0.005175 0
0.919539 -0.004886 0
0.924581 -0.004590 0
0.929237 -0.004225 0
0.933571 -0.003840 0
0.937647 -0.003544 0
0.941426 -0.003336 0
0.944812 -0.003085 0
0.947790 -0.002715 0
0.950475 -0.002320 0
0.953017 -0.002075 0
0.955434 -0.002018 0
0.957610 -0.001983 0
0.959402 -0.001769 0
0.960777 -0.001329 0
0.961896 -0.000855 0
0.962998 -0.000627 0
0.964218 -0.000749 0
0.965568 -0.001098 0
0.966793 -0.001294 0
0.967817 -0.001160 0
0.968667 -0.000923 0
0.969367 -0.000716 0
0.969939 -0.000553 0
0.970407 -0.000427 0
0.970791 -0.000332 0
0.971105 -0.000259 0
0.971364 -0.000203 0
0.971578 -0.000161 0
0.971754 -0.000128 0
0.971901 -0.000103 0
0.972023 -0.000084 0
0.972125 -0.000069 0
0.972210 -0.000057 0
0.972283 -0.000048 0
0.972345 -0.000042 0
0.972399 -0.000037 0
0.972447 -0.000035 0
0.972491 -0.000034 0
0.972534 -0.000038 0
0.972580 -0.000041 0
0.972633 -0.000063 0
0.972702 -0.000084 0
0.972797 -0.000194 0
0.972951 -0.000381 0
0.973165 -0.000457 0
1.000000 -0.009003 0
1.009269 -0.026943 0
1.027740 -0.044822 0
1.055781 -0.062381 0
1.093592 -0.078589 0
1.141167 -0.091294 0
1.196787 -0.097107 0
1.257943 -0.090310 0
1.309334 -0.068854 0
1.341694 -0.038187 0
1.353198 -0.004963 0
1.345754 0.026194 0
1.322489 0.052787 0
1.286197 0.073275 0
1.239438 0.085560 0
1.186035 0.086265 0
1.131640 0.070642 0
1.084289 0.031947 0
1.061478 -0.035700 0
1.092082 -0.126919 0
1.188882 -0.217936 0
1.334084 -0.271921 0
1.502545 -0.262045 0
1.653602 -0.191567 0
1.747907 -0.088674 0
1.775278 0.014281 0
1.744545 0.097448 0
1.673618 0.154023 0
1.581043 0.184415 0
1.479301 0.192620 0
1.373299 0.186847 0
1.269776 0.175021 0
1.178312 0.152482 0
1.098262 0.105267 0
1.013511 0.075774 0
0.960189 0.088421 0
0.936379 0.104364 0
0.927594 0.100722 0
0.934964 0.071343 0
0.944839 0.040902 0
0.942866 0.013598 0
0.920063 -0.011731 0
0.890093 -0.017526 0
0.869651 -0.013863 0
0.862061 -0.013176 0
0.865623 -0.014968 0
0.874507 -0.016304 0
0.884001 -0.016353 0
0.892758 -0.015712 0
0.900776 -0.014912 0
0.908315 -0.014181 0
0.915555 -0.013527 0
0.922558 -0.012892 0
0.929328 -0.012269 0
0.935859 -0.011687 0
0.942120 -0.011107 0
0.948036 -0.010442 0
0.953562 -0.009692 0
0.958735 -0.008984 0
0.963601 -0.008404 0
0.968116 -0.007850 0
0.972186 -0.007160 0
0.975809 -0.006360 0
0.979114 -0.005659 0
0.982237 -0.005223 0
0.985176 -0.004955 0
0.987774 -0.004590 0
0.989897 -0.003965 0
0.991581 -0.003163 0
0.993058 -0.002492 0
0.994603 -0.002219 0
0.996312 -0.002320 0
0.998050 -0.002568 0
0.999503 -0.002574 0
1.000505 -0.002247 0
1.001278 -0.001873 0
1.001958 -0.001549 0
1.002563 -0.001271 0
1.003098 -0.001040 0
1.003566 -0.000851 0
1.003971 -0.000698 0
1.004320 -0.000573 0
1.004618 -0.000472 0
1.004873 -0.000390 0
1.005089 -0.000323 0
1.005273 -0.000269 0
1.005428 -0.000224 0
1.005559 -0.000188 0
1.005670 -0.000158 0
1.005764 -0.000135 0
1.005845 -0.000116 0
1.005914 -0.000102 0
1.005975 -0.000093 0
1.006029 -0.000088 0
1.006081 -0.000090 0
1.006128 -0.000099 0
1.006183 -0.000123 0
1.006229 -0.000165 0
1.006300 -0.000249 0
1.006296 -0.000368 0
1.006259 -0.000428 0
1.000000 -0.013460 0
1.008113 -0.040484 0
1.025467 -0.067972 0
1.053276 -0.095772 0
1.092375 -0.122868 0
1.144964 -0.146235 0
1.210467 -0.161748 0
1.298501 -0.153847 0
1.368006 -0.115240 0
1.406051 -0.061304 0
1.415423 -0.005901 0
1.402135 0.043818 0
1.372035 0.085524 0
1.328242 0.118715 0
1.270829 0.141123 0
1.201081 0.147910 0
1.125307 0.132589 0
1.051057 0.080805 0
0.974231 -0.029377 0
0.964856 -0.189995 0
1.076525 -0.345079 0
1.202873 -0.439999 0
1.375308 -0.439500 0
1.575057 -0.332391 0
1.715198 -0.161521 0
1.781719 0.011715 0
1.781420 0.150225 0
1.720571 0.239587 0
1.620005 0.286002 0
1.508565 0.306346 0
1.405813 0.306629 0
1.312354 0.281160 0
1.220127 0.242434 0
1.117472 0.235803 0
0.996113 0.227306 0
0.921184 0.162643 0
0.914407 0.074567 0
0.955724 0.002146 0
0.964581 -0.023027 0
0.944494 -0.005286 0
0.928028 0.026590 0
0.903406 0.047946 0
0.874449 0.042228 0
0.854699 0.020042 0
0.848559 -0.003513 0
0.857709 -0.020103 0
0.871389 -0.026242 0
0.882030 -0.026079 0
0.890410 -0.024358 0
0.897883 -0.022789 0
0.905187 -0.021635 0
0.912535 -0.020753 0
0.919900 -0.019968 0
0.927187 -0.019169 0
0.934273 -0.018302 0
0.941019 -0.017349 0
0.947354 -0.016326 0
0.953293 -0.015287 0
0.958863 -0.014261 0
0.964012 -0.013219 0
0.968655 -0.012128 0
0.972801 -0.011027 0
0.976585 -0.010011 0
0.980132 -0.009143 0
0.983426 -0.008381 0
0.986302 -0.007610 0
0.988665 -0.006737 0
0.990587 -0.005789 0
0.992322 -0.004929 0
0.994132 -0.004349 0
0.996047 -0.004108 0
0.997886 -0.004073 0
0.999402 -0.003940 0
1.000427 -0.003553 0
1.001255 -0.003068 0
1.002000 -0.002613 0
1.002662 -0.002207 0
1.003251 -0.001856 0
1.003769 -0.001555 0
1.004222 -0.001300 0
1.004615 -0.001086 0
1.004954 -0.000906 0
1.005243 -0.000756 0
1.005491 -0.000632 0
1.005701 -0.000528 0
1.005879 -0.000442 0
1.006030 -0.000370 0
1.006157 -0.000311 0
1.006265 -0.000263 0
1.006357 -0.000223 0
1.006434 -0.000192 0
1.006500 -0.000167 0
1.006558 -0.000150 0
1.006607 -0.000139 0
1.006652 -0.000137 0
1.006691 -0.000144 0
1.006728 -0.000164 0
1.006757 -0.000201 0
1.006778 -0.000261 0
1.006763 -0.000340 0
1.006717 -0.000382 0
1.000000 -0.017118 0
1.005326 -0.052412 0
1.019910 -0.089987 0
1.046173 -0.129292 0
1.084674 -0.170279 0
1.141033 -0.209388 0
1.216571 -0.250645 0
1.367283 -0.247849 0
1.462094 -0.176402 0
1.501022 -0.085602 0
1.503374 -0.001046 0
1.479812 0.069584 0
1.441959 0.126682 0
1.389853 0.174482 0
1.317494 0.212723 0
1.239139 0.231789 0
1.136129 0.220667 0
1.027824 0.183024 0
0.832231 0.050504 0
0.728344 -0.229210 0
0.791015 -0.455951 0
0.787215 -0.570702 0
0.916430 -0.634227 0
1.223199 -0.531455 0
1.421055 -0.295334 0
1.558746 -0.051939 0
1.645206 0.158599 0
1.669801 0.315441 0
1.624656 0.396423 0
1.525022 0.406816 0
1.403471 0.383062 0
1.287160 0.360710 0
1.192264 0.347368 0
1.125265 0.329284 0
1.108103 0.272065 0
1.100308 0.170131 0
1.069944 0.069828 0
1.011653 0.050552 0
0.950626 0.082576 0
0.910574 0.077459 0
0.897200 0.054689 0
0.905746 0.041852 0
0.923980 0.031186 0
0.936876 0.012031 0
0.937102 -0.016182 0
0.921195 -0.037795 0
0.903117 -0.040621 0
0.893531 -0.035371 0
0.891678 -0.031563 0
0.894929 -0.029686 0
0.901075 -0.028829 0
0.908664 -0.028237 0
0.916835 -0.027541 0
0.925083 -0.026640 0
0.933075 -0.025516 0
0.940600 -0.024185 0
0.947579 -0.022714 0
0.954037 -0.021199 0
0.959981 -0.019701 0
0.965356 -0.018194 0
0.970127 -0.016638 0
0.974387 -0.015088 0
0.978293 -0.013689 0
0.981894 -0.012499 0
0.985110 -0.011392 0
0.987798 -0.010193 0
0.989936 -0.008874 0
0.991768 -0.007620 0
0.993609 -0.006708 0
0.995593 -0.006217 0
0.997570 -0.005972 0
0.999181 -0.005674 0
1.000333 -0.005109 0
1.001207 -0.004426 0
1.001955 -0.003819 0
1.002612 -0.003280 0
1.003192 -0.002799 0
1.003703 -0.002377 0
1.004151 -0.002011 0
1.004542 -0.001697 0
1.004882 -0.001429 0
1.005175 -0.001201 0
1.005427 -0.001009 0
1.005643 -0.000847 0
1.005827 -0.000712 0
1.005984 -0.000598 0
1.006117 -0.000502 0
1.006230 -0.000423 0
1.006325 -0.000358 0
1.006406 -0.000304 0
1.006475 -0.000260 0
1.006533 -0.000226 0
1.006582 -0.000200 0
1.006624 -0.000183 0
1.006660 -0.000174 0
1.006689 -0.000176 0
1.006711 -0.000189 0
1.006724 -0.000215 0
1.006724 -0.000255 0
1.006702 -0.000307 0
1.006655 -0.000336 0
1.000000 -0.018790 0
1.002699 -0.060400 0
1.011201 -0.108823 0
1.030561 -0.160540 0
1.063880 -0.217731 0
1.116378 -0.278134 0
1.205994 -0.387999 0
1.472539 -0.399371 0
1.563880 -0.248979 0
1.575989 -0.102582 0
1.567417 0.015311 0
1.542716 0.105235 0
1.510391 0.175484 0
1.473400 0.243182 0
1.413630 0.291838 0
1.244588 0.329277 0
1.084619 0.343905 0
1.083281 0.384703 0
1.045865 0.270104 0
0.702312 -0.148778 0
0.341147 -0.403947 0
0.184875 -0.565412 0
0.265333 -0.875482 0
0.524826 -0.837014 0
0.936708 -0.497066 0
1.160765 -0.212433 0
1.282099 0.039172 0
1.389013 0.260139 0
1.450618 0.430784 0
1.441726 0.527535 0
1.368583 0.544495 0
1.274987 0.492369 0
1.200111 0.404332 0
1.139948 0.319968 0
1.113264 0.252266 0
1.089789 0.200806 0
1.031783 0.163226 0
0.948649 0.121467 0
0.908963 0.078056 0
0.898521 0.048144 0
0.893249 0.031421 0
0.892590 0.021169 0
0.898444 0.011102 0
0.904842 0.006923 0
0.903988 0.012172 0
0.890305 0.013886 0
0.875966 0.001425 0
0.870787 -0.014637 0
0.873478 -0.025752 0
0.880989 -0.032183 0
0.890819 -0.035368 0
0.901454 -0.036510 0
0.912119 -0.036384 0
0.922366 -0.035406 0
0.931876 -0.033817 0
0.940536 -0.031850 0
0.948413 -0.029760 0
0.955568 -0.027686 0
0.961951 -0.025578 0
0.967490 -0.023363 0
0.972328 -0.021157 0
0.976754 -0.019191 0
0.980885 -0.017516 0
0.984498 -0.015958 0
0.987349 -0.014283 0
0.989568 -0.012435 0
0.991524 -0.010707 0
0.993573 -0.009462 0
0.995854 -0.008753 0
0.997872 -0.008309 0
0.999470 -0.007696 0
1.000609 -0.006836 0
1.001436 -0.005965 0
1.002158 -0.005175 0
1.002789 -0.004472 0
1.003337 -0.003849 0
1.003815 -0.003298 0
1.004234 -0.002815 0
1.004600 -0.002394 0
1.004920 -0.002030 0
1.005198 -0.001718 0
1.005438 -0.001451 0
1.005646 -0.001224 0
1.005824 -0.001032 0
1.005977 -0.000869 0
1.006108 -0.000732 0
1.006219 -0.000616 0
1.006314 -0.000520 0
1.006395 -0.000440 0
1.006463 -0.000373 0
1.006520 -0.000319 0
1.006569 -0.000275 0
1.006609 -0.000241 0
1.006642 -0.000217 0
1.006667 -0.000202 0
1.006686 -0.000196 0
1.006697 -0.000200 0
1.006698 -0.000215 0
1.006687 -0.000239 0
1.006658 -0.000271 0
1.006611 -0.000288 0
1.000000 -0.019824 0
1.000734 -0.063621 0
1.003686 -0.117854 0
1.002060 -0.181976 0
1.028209 -0.256100 0
1.051352 -0.351505 0
1.163403 -0.606809 0
1.520487 -0.605736 0
1.459980 -0.279852 0
1.376104 -0.089138 0
1.358830 0.032228 0
1.348556 0.126611 0
1.347757 0.195999 0
1.358944 0.271243 0
1.365346 0.441536 0
1.389923 0.560801 0
1.236964 0.381975 0
0.991137 0.221779 0
0.834696 0.431474 0
0.354285 0.475509 0
-0.020292 0.061487 0
0.024163 -0.494887 0
0.066378 -0.974176 0
0.097462 -1.202828 0
0.418701 -0.931270 0
0.759857 -0.397327 0
0.957719 -0.069647 0
1.083000 0.146924 0
1.159621 0.343713 0
1.195028 0.488854 0
1.204031 0.549803 0
1.178205 0.529185 0
1.092714 0.482410 0
1.017555 0.416135 0
0.980226 0.322227 0
0.946697 0.251615 0
0.908427 0.210971 0
0.877696 0.173375 0
0.847938 0.132707 0
0.820971 0.093177 0
0.795264 0.060624 0
0.775172 0.036660 0
0.760221 0.018938 0
0.752678 0.006490 0
0.756703 -0.001641 0
0.775503 -0.009769 0
0.799367 -0.021100 0
0.821098 -0.032879 0
0.841064 -0.041761 0
0.859877 -0.047024 0
0.877506 -0.049292 0
0.893576 -0.049534 0
0.907874 -0.048450 0
0.920542 -0.046395 0
0.931882 -0.043683 0
0.942045 -0.040720 0
0.950955 -0.037745 0
0.958529 -0.034736 0
0.964965 -0.031620 0
0.970690 -0.028569 0
0.975967 -0.025900 0
0.980650 -0.023644 0
0.984491 -0.021431 0
0.987382 -0.018961 0
0.989689 -0.016462 0
0.992056 -0.014367 0
0.994512 -0.012877 0
0.996861 -0.011949 0
0.998875 -0.011006 0
1.000341 -0.009832 0
1.001311 -0.008708 0
1.002064 -0.007639 0
1.002706 -0.006658 0
1.003261 -0.005779 0
1.003741 -0.004997 0
1.004157 -0.004306 0
1.004517 -0.003696 0
1.004832 -0.003162 0
1.005107 -0.002697 0
1.005347 -0.002294 0
1.005556 -0.001947 0
1.005738 -0.001649 0
1.005896 -0.001395 0
1.006033 -0.001179 0
1.006151 -0.000995 0
1.006252 -0.000840 0
1.006339 -0.000709 0
1.006414 -0.000599 0
1.006477 -0.000506 0
1.006530 -0.000430 0
1.006575 -0.000366 0
1.006612 -0.000314 0
1.006642 -0.000273 0
1.006666 -0.000242 0
1.006682 -0.000219 0
1.006692 -0.000206 0
1.006693 -0.000201 0
1.006685 -0.000205 0
1.006666 -0.000215 0
1.006633 -0.000232 0
1.006584 -0.000240 0
1.000000 -0.019531 0
0.998158 -0.064098 0
0.999327 -0.110156 0
0.977176 -0.185069 0
0.987393 -0.267029 0
0.944480 -0.413333 0
1.065863 -0.857137 0
0.753254 -0.591354 0
0.004606 0.000000 0
0.002925 0.000000 0
0.567891 0.044291 0
0.612528 0.116309 0
0.754520 0.165097 0
0.873786 0.225593 0
0.913323 0.260859 0
0.933845 0.457660 0
0.759757 0.742691 0
0.464123 0.786971 0
0.080459 0.906957 0
0.062308 0.706211 0
0.055786 -0.073825 0
0.173012 -0.652081 0
0.196549 -0.948780 0
0.173289 -1.189335 0
0.154103 -1.159460 0
0.438503 -0.751449 0
0.689196 -0.283969 0
0.831887 0.058239 0
0.907351 0.318758 0
0.963047 0.483127 0
1.011825 0.561321 0
0.999641 0.603689 0
0.950248 0.564985 0
0.927989 0.432459 0
0.885857 0.323127 0
0.829851 0.272608 0
0.800884 0.232231 0
0.796899 0.181960 0
0.794426 0.134784 0
0.778956 0.100821 0
0.752755 0.077224 0
0.727429 0.056215 0
0.711368 0.033599 0
0.708092 0.010445 0
0.717994 -0.010649 0
0.739209 -0.028776 0
0.766262 -0.044168 0
0.794302 -0.056330 0
0.821401 -0.064527 0
0.846886 -0.068622 0
0.870266 -0.069064 0
0.890845 -0.066875 0
0.908379 -0.063346 0
0.923171 -0.059412 0
0.935709 -0.055318 0
0.946443 -0.050921 0
0.955663 -0.046241 0
0.963661 -0.041694 0
0.970557 -0.037737 0
0.976367 -0.034363 0
0.981113 -0.031115 0
0.985046 -0.027713 0
0.988517 -0.024246 0
0.991422 -0.021154 0
0.994012 -0.018956 0
0.996688 -0.017256 0
0.998925 -0.015511 0
1.000629 -0.013825 0
1.001712 -0.012231 0
1.002537 -0.010744 0
1.003170 -0.009419 0
1.003679 -0.008229 0
1.004105 -0.007161 0
1.004467 -0.006210 0
1.004775 -0.005367 0
1.005039 -0.004625 0
1.005269 -0.003973 0
1.005470 -0.003404 0
1.005646 -0.002909 0
1.005802 -0.002480 0
1.005939 -0.002109 0
1.006059 -0.001791 0
1.006165 -0.001519 0
1.006258 -0.001286 0
1.006339 -0.001088 0
1.006410 -0.000920 0
1.006471 -0.000778 0
1.006524 -0.000658 0
1.006568 -0.000556 0
1.006606 -0.000472 0
1.006638 -0.000401 0
1.006663 -0.000342 0
1.006683 -0.000295 0
1.006697 -0.000257 0
1.006704 -0.000228 0
1.006705 -0.000207 0
1.006699 -0.000194 0
1.006684 -0.000187 0
1.006658 -0.000186 0
1.006621 -0.000190 0
1.006572 -0.000191 0
1.000000 -0.017992 0
1.000430 -0.062963 0
0.976571 -0.096880 0
0.975889 -0.170050 0
0.917914 -0.223410 0
0.883545 -0.429982 0
0.740805 -0.520185 0
0.000000 -0.004279 0
-0.650991 0.191194 0
-0.575073 0.000000 0
0.000000 0.000000 0
0.045161 -0.059147 0
0.115273 -0.065259 0
0.204909 0.112440 0
0.618904 0.381478 0
0.186910 0.714366 0
0.062538 0.851696 0
-0.026636 0.901077 0
-0.264853 0.833289 0
0.074496 0.500182 0
0.256758 -0.049217 0
0.218416 -0.635649 0
0.248412 -0.974452 0
0.271773 -1.160381 0
0.221727 -1.196483 0
0.286526 -0.932418 0
0.481035 -0.463029 0
0.648244 -0.071228 0
0.800148 0.212555 0
0.918671 0.384382 0
0.967406 0.513212 0
0.960413 0.590765 0
0.957966 0.554065 0
0.911348 0.480529 0
0.831249 0.420368 0
0.790876 0.336591 0
0.793220 0.243926 0
0.791884 0.179837 0
0.762423 0.150654 0
0.716371 0.134851 0
0.675712 0.112154 0
0.653607 0.078051 0
0.651861 0.038278 0
0.666547 -0.000133 0
0.692573 -0.032755 0
0.725403 -0.058033 0
0.760730 -0.076190 0
0.795219 -0.088015 0
0.827049 -0.094342 0
0.855508 -0.095887 0
0.880726 -0.093249 0
0.902071 -0.087644 0
0.919811 -0.080773 0
0.934592 -0.073722 0
0.946580 -0.066954 0
0.956393 -0.060671 0
0.964719 -0.054960 0
0.972129 -0.049627 0
0.978844 -0.044323 0
0.984313 -0.039123 0
0.988239 -0.034578 0
0.991791 -0.031046 0
0.995153 -0.027806 0
0.997981 -0.024454 0
1.000315 -0.021726 0
1.001961 -0.019279 0
1.003078 -0.016817 0
1.003862 -0.014735 0
1.004402 -0.012913 0
1.004814 -0.011288 0
1.005124 -0.009849 0
1.005359 -0.008574 0
1.005544 -0.007445 0
1.005694 -0.006448 0
1.005821 -0.005570 0
1.005929 -0.004800 0
1.006025 -0.004126 0
1.006111 -0.003539 0
1.006189 -0.003028 0
1.006260 -0.002586 0
1.006326 -0.002204 0
1.006386 -0.001876 0
1.006440 -0.001594 0
1.006490 -0.001353 0
1.006534 -0.001147 0
1.006574 -0.000972 0
1.006609 -0.000823 0
1.006640 -0.000696 0
1.006666 -0.000589 0
1.006688 -0.000499 0
1.006706 -0.000423 0
1.006720 -0.000359 0
1.006729 -0.000307 0
1.006734 -0.000263 0
1.006733 -0.000228 0
1.006726 -0.000201 0
1.006713 -0.000180 0
1.006692 -0.000164 0
1.006662 -0.000153 0
1.006622 -0.000146 0
1.006572 -0.000141 0
1.000000 -0.019975 0
0.994320 -0.040687 0
0.971843 -0.085623 0
0.960323 -0.126421 0
0.875488 -0.174694 0
0.843887 -0.236233 0
0.493359 -0.071796 0
0.329786 0.051252 0
0.000000 0.000000 0
0.000000 0.000000 0
0.000000 0.000000 0
0.000000 0.000000 0
-0.061054 0.003442 0
-0.049030 -0.278040 0
0.055162 0.278858 0
0.143124 1.014024 0
0.128335 0.956235 0
-0.019506 1.114361 0
-0.057556 0.805824 0
0.032654 0.184600 0
0.254376 -0.217744 0
0.349335 -0.643735 0
0.380031 -1.002137 0
0.360654 -1.162649 0
0.346691 -1.174211 0
0.293111 -1.010756 0
0.405667 -0.645686 0
0.531756 -0.260872 0
0.635084 0.048332 0
0.702579 0.315871 0
0.724420 0.519582 0
0.757555 0.613132 0
0.780909 0.614052 0
0.769474 0.559179 0
0.786745 0.443602 0
0.824659 0.310639 0
0.827766 0.231226 0
0.779294 0.212761 0
0.708186 0.210300 0
0.649660 0.187536 0
0.619977 0.139992 0
0.618773 0.080069 0
0.639287 0.020662 0
0.674025 -0.030263 0
0.716546 -0.069501 0
0.761209 -0.096930 0
0.803585 -0.113981 0
0.841220 -0.122645 0
0.873749 -0.124814 0
0.900848 -0.122296 0
0.923542 -0.115625 0
0.939438 -0.105958 0
0.950632 -0.095864 0