# vtk DataFile Version 2.0
generated by CFD-lab course output (written by Tobias Neckel) 
ASCII

DATASET STRUCTURED_GRID
DIMENSIONS  101 21 1 
POINTS 2121 float

0.000000 0.000000 0
0.100000 0.000000 0
0.200000 0.000000 0
0.300000 0.000000 0
0.400000 0.000000 0
0.500000 0.000000 0
0.600000 0.000000 0
0.700000 0.000000 0
0.800000 0.000000 0
0.900000 0.000000 0
1.000000 0.000000 0
1.100000 0.000000 0
1.200000 0.000000 0
1.300000 0.000000 0
1.400000 0.000000 0
1.500000 0.000000 0
1.600000 0.000000 0
1.700000 0.000000 0
1.800000 0.000000 0
1.900000 0.000000 0
2.000000 0.000000 0
2.100000 0.000000 0
2.200000 0.000000 0
2.300000 0.000000 0
2.400000 0.000000 0
2.500000 0.000000 0
2.600000 0.000000 0
2.700000 0.000000 0
2.800000 0.000000 0
2.900000 0.000000 0
3.000000 0.000000 0
3.100000 0.000000 0
3.200000 0.000000 0
3.300000 0.000000 0
3.400000 0.000000 0
3.500000 0.000000 0
3.600000 0.000000 0
3.700000 0.000000 0
3.800000 0.000000 0
3.900000 0.000000 0
4.000000 0.000000 0
4.100000 0.000000 0
4.200000 0.000000 0
4.300000 0.000000 0
4.400000 0.000000 0
4.500000 0.000000 0
4.600000 0.000000 0
4.700000 0.000000 0
4.800000 0.000000 0
4.900000 0.000000 0
5.000000 0.000000 0
5.100000 0.000000 0
5.200000 0.000000 0
5.300000 0.000000 0
5.400000 0.000000 0
5.500000 0.000000 0
5.600000 0.000000 0
5.700000 0.000000 0
5.800000 0.000000 0
5.900000 0.000000 0
6.000000 0.000000 0
6.100000 0.000000 0
6.200000 0.000000 0
6.300000 0.000000 0
6.400000 0.000000 0
6.500000 0.000000 0
6.600000 0.000000 0
6.700000 0.000000 0
6.800000 0.000000 0
6.900000 0.000000 0
7.000000 0.000000 0
7.100000 0.000000 0
7.200000 0.000000 0
7.300000 0.000000 0
7.400000 0.000000 0
7.500000 0.000000 0
7.600000 0.000000 0
7.700000 0.000000 0
7.800000 0.000000 0
7.900000 0.000000 0
8.000000 0.000000 0
8.100000 0.000000 0
8.200000 0.000000 0
8.300000 0.000000 0
8.400000 0.000000 0
8.500000 0.000000 0
8.600000 0.000000 0
8.700000 0.000000 0
8.800000 0.000000 0
8.900000 0.000000 0
9.000000 0.000000 0
9.100000 0.000000 0
9.200000 0.000000 0
9.300000 0.000000 0
9.400000 0.000000 0
9.500000 0.000000 0
9.600000 0.000000 0
9.700000 0.000000 0
9.800000 0.000000 0
9.900000 0.000000 0
10.000000 0.000000 0
0.000000 0.100000 0
0.100000 0.100000 0
0.200000 0.100000 0
0.300000 0.100000 0
0.400000 0.100000 0
0.500000 0.100000 0
0.600000 0.100000 0
0.700000 0.100000 0
0.800000 0.100000 0
0.900000 0.100000 0
1.000000 0.100000 0
1.100000 0.100000 0
1.200000 0.100000 0
1.300000 0.100000 0
1.400000 0.100000 0
1.500000 0.100000 0
1.600000 0.100000 0
1.700000 0.100000 0
1.800000 0.100000 0
1.900000 0.100000 0
2.000000 0.100000 0
2.100000 0.100000 0
2.200000 0.100000 0
2.300000 0.100000 0
2.400000 0.100000 0
2.500000 0.100000 0
2.600000 0.100000 0
2.700000 0.100000 0
2.800000 0.100000 0
2.900000 0.100000 0
3.000000 0.100000 0
3.100000 0.100000 0
3.200000 0.100000 0
3.300000 0.100000 0
3.400000 0.100000 0
3.500000 0.100000 0
3.600000 0.100000 0
3.700000 0.100000 0
3.800000 0.100000 0
3.900000 0.100000 0
4.000000 0.100000 0
4.100000 0.100000 0
4.200000 0.100000 0
4.300000 0.100000 0
4.400000 0.100000 0
4.500000 0.100000 0
4.600000 0.100000 0
4.700000 0.100000 0
4.800000 0.100000 0
4.900000 0.100000 0
5.000000 0.100000 0
5.100000 0.100000 0
5.200000 0.100000 0
5.300000 0.100000 0
5.400000 0.100000 0
5.500000 0.100000 0
5.600000 0.100000 0
5.700000 0.100000 0
5.800000 0.100000 0
5.900000 0.100000 0
6.000000 0.100000 0
6.100000 0.100000 0
6.200000 0.100000 0
6.300000 0.100000 0
6.400000 0.100000 0
6.500000 0.100000 0
6.600000 0.100000 0
6.700000 0.100000 0
6.800000 0.100000 0
6.900000 0.100000 0
7.000000 0.100000 0
7.100000 0.100000 0
7.200000 0.100000 0
7.300000 0.100000 0
7.400000 0.100000 0
7.500000 0.100000 0
7.600000 0.100000 0
7.700000 0.100000 0
7.800000 0.100000 0
7.900000 0.100000 0
8.000000 0.100000 0
8.100000 0.100000 0
8.200000 0.100000 0
8.300000 0.100000 0
8.400000 0.100000 0
8.500000 0.100000 0
8.600000 0.100000 0
8.700000 0.100000 0
8.800000 0.100000 0
8.900000 0.100000 0
9.000000 0.100000 0
9.100000 0.100000 0
9.200000 0.100000 0
9.300000 0.100000 0
9.400000 0.100000 0
9.500000 0.100000 0
9.600000 0.100000 0
9.700000 0.100000 0
9.800000 0.100000 0
9.900000 0.100000 0
10.000000 0.100000 0
0.000000 0.200000 0
0.100000 0.200000 0
0.200000 0.200000 0
0.300000 0.200000 0
0.400000 0.200000 0
0.500000 0.200000 0
0.600000 0.200000 0
0.700000 0.200000 0
0.800000 0.200000 0
0.900000 0.200000 0
1.000000 0.200000 0
1.100000 0.200000 0
1.200000 0.200000 0
1.300000 0.200000 0
1.400000 0.200000 0
1.500000 0.200000 0
1.600000 0.200000 0
1.700000 0.200000 0
1.800000 0.200000 0
1.900000 0.200000 0
2.000000 0.200000 0
2.100000 0.200000 0
2.200000 0.200000 0
2.300000 0.200000 0
2.400000 0.200000 0
2.500000 0.200000 0
2.600000 0.200000 0
2.700000 0.200000 0
2.800000 0.200000 0
2.900000 0.200000 0
3.000000 0.200000 0
3.100000 0.200000 0
3.200000 0.200000 0
3.300000 0.200000 0
3.400000 0.200000 0
3.500000 0.200000 0
3.600000 0.200000 0
3.700000 0.200000 0
3.800000 0.200000 0
3.900000 0.200000 0
4.000000 0.200000 0
4.100000 0.200000 0
4.200000 0.200000 0
4.300000 0.200000 0
4.400000 0.200000 0
4.500000 0.200000 0
4.600000 0.200000 0
4.700000 0.200000 0
4.800000 0.200000 0
4.900000 0.200000 0
5.000000 0.200000 0
5.100000 0.200000 0
5.200000 0.200000 0
5.300000 0.200000 0
5.400000 0.200000 0
5.500000 0.200000 0
5.600000 0.200000 0
5.700000 0.200000 0
5.800000 0.200000 0
5.900000 0.200000 0
6.000000 0.200000 0
6.100000 0.200000 0
6.200000 0.200000 0
6.300000 0.200000 0
6.400000 0.200000 0
6.500000 0.200000 0
6.600000 0.200000 0
6.700000 0.200000 0
6.800000 0.200000 0
6.900000 0.200000 0
7.000000 0.200000 0
7.100000 0.200000 0
7.200000 0.200000 0
7.300000 0.200000 0
7.400000 0.200000 0
7.500000 0.200000 0
7.600000 0.200000 0
7.700000 0.200000 0
7.800000 0.200000 0
7.900000 0.200000 0
8.000000 0.200000 0
8.100000 0.200000 0
8.200000 0.200000 0
8.300000 0.200000 0
8.400000 0.200000 0
8.500000 0.200000 0
8.600000 0.200000 0
8.700000 0.200000 0
8.800000 0.200000 0
8.900000 0.200000 0
9.000000 0.200000 0
9.100000 0.200000 0
9.200000 0.200000 0
9.300000 0.200000 0
9.400000 0.200000 0
9.500000 0.200000 0
9.600000 0.200000 0
9.700000 0.200000 0
9.800000 0.200000 0
9.900000 0.200000 0
10.000000 0.200000 0
0.000000 0.300000 0
0.100000 0.300000 0
0.200000 0.300000 0
0.300000 0.300000 0
0.400000 0.300000 0
0.500000 0.300000 0
0.600000 0.300000 0
0.700000 0.300000 0
0.800000 0.300000 0
0.900000 0.300000 0
1.000000 0.300000 0
1.100000 0.300000 0
1.200000 0.300000 0
1.300000 0.300000 0
1.400000 0.300000 0
1.500000 0.300000 0
1.600000 0.300000 0
1.700000 0.300000 0
1.800000 0.300000 0
1.900000 0.300000 0
2.000000 0.300000 0
2.100000 0.300000 0
2.200000 0.300000 0
2.300000 0.300000 0
2.400000 0.300000 0
2.500000 0.300000 0
2.600000 0.300000 0
2.700000 0.300000 0
2.800000 0.300000 0
2.900000 0.300000 0
3.000000 0.300000 0
3.100000 0.300000 0
3.200000 0.300000 0
3.300000 0.300000 0
3.400000 0.300000 0
3.500000 0.300000 0
3.600000 0.300000 0
3.700000 0.300000 0
3.800000 0.300000 0
3.900000 0.300000 0
4.000000 0.300000 0
4.100000 0.300000 0
4.200000 0.300000 0
4.300000 0.300000 0
4.400000 0.300000 0
4.500000 0.300000 0
4.600000 0.300000 0
4.700000 0.300000 0
4.800000 0.300000 0
4.900000 0.300000 0
5.000000 0.300000 0
5.100000 0.300000 0
5.200000 0.300000 0
5.300000 0.300000 0
5.400000 0.300000 0
5.500000 0.300000 0
5.600000 0.300000 0
5.700000 0.300000 0
5.800000 0.300000 0
5.900000 0.300000 0
6.000000 0.300000 0
6.100000 0.300000 0
6.200000 0.300000 0
6.300000 0.300000 0
6.400000 0.300000 0
6.500000 0.300000 0
6.600000 0.300000 0
6.700000 0.300000 0
6.800000 0.300000 0
6.900000 0.300000 0
7.000000 0.300000 0
7.100000 0.300000 0
7.200000 0.300000 0
7.300000 0.300000 0
7.400000 0.300000 0
7.500000 0.300000 0
7.600000 0.300000 0
7.700000 0.300000 0
7.800000 0.300000 0
7.900000 0.300000 0
8.000000 0.300000 0
8.100000 0.300000 0
8.200000 0.300000 0
8.300000 0.300000 0
8.400000 0.300000 0
8.500000 0.300000 0
8.600000 0.300000 0
8.700000 0.300000 0
8.800000 0.300000 0
8.900000 0.300000 0
9.000000 0.300000 0
9.100000 0.300000 0
9.200000 0.300000 0
9.300000 0.300000 0
9.400000 0.300000 0
9.500000 0.300000 0
9.600000 0.300000 0
9.700000 0.300000 0
9.800000 0.300000 0
9.900000 0.300000 0
10.000000 0.300000 0
0.000000 0.400000 0
0.100000 0.400000 0
0.200000 0.400000 0
0.300000 0.400000 0
0.400000 0.400000 0
0.500000 0.400000 0
0.600000 0.400000 0
0.700000 0.400000 0
0.800000 0.400000 0
0.900000 0.400000 0
1.000000 0.400000 0
1.100000 0.400000 0
1.200000 0.400000 0
1.300000 0.400000 0
1.400000 0.400000 0
1.500000 0.400000 0
1.600000 0.400000 0
1.700000 0.400000 0
1.800000 0.400000 0
1.900000 0.400000 0
2.000000 0.400000 0
2.100000 0.400000 0
2.200000 0.400000 0
2.300000 0.400000 0
2.400000 0.400000 0
2.500000 0.400000 0
2.600000 0.400000 0
2.700000 0.400000 0
2.800000 0.400000 0
2.900000 0.400000 0
3.000000 0.400000 0
3.100000 0.400000 0
3.200000 0.400000 0
3.300000 0.400000 0
3.400000 0.400000 0
3.500000 0.400000 0
3.600000 0.400000 0
3.700000 0.400000 0
3.800000 0.400000 0
3.900000 0.400000 0
4.000000 0.400000 0
4.100000 0.400000 0
4.200000 0.400000 0
4.300000 0.400000 0
4.400000 0.400000 0
4.500000 0.400000 0
4.600000 0.400000 0
4.700000 0.400000 0
4.800000 0.400000 0
4.900000 0.400000 0
5.000000 0.400000 0
5.100000 0.400000 0
5.200000 0.400000 0
5.300000 0.400000 0
5.400000 0.400000 0
5.500000 0.400000 0
5.600000 0.400000 0
5.700000 0.400000 0
5.800000 0.400000 0
5.900000 0.400000 0
6.000000 0.400000 0
6.100000 0.400000 0
6.200000 0.400000 0
6.300000 0.400000 0
6.400000 0.400000 0
6.500000 0.400000 0
6.600000 0.400000 0
6.700000 0.400000 0
6.800000 0.400000 0
6.900000 0.400000 0
7.000000 0.400000 0
7.100000 0.400000 0
7.200000 0.400000 0
7.300000 0.400000 0
7.400000 0.400000 0
7.500000 0.400000 0
7.600000 0.400000 0
7.700000 0.400000 0
7.800000 0.400000 0
7.900000 0.400000 0
8.000000 0.400000 0
8.100000 0.400000 0
8.200000 0.400000 0
8.300000 0.400000 0
8.400000 0.400000 0
8.500000 0.400000 0
8.600000 0.400000 0
[...]
POINT_DATA 2121 

VECTORS velocity float
0.500000 0.000000 0
0.000058 0.000000 0
0.000165 0.000000 0
0.000300 0.000000 0
0.000446 0.000000 0
0.000590 0.000000 0
0.000712 0.000000 0
0.000788 0.000000 0
0.000768 0.000000 0
0.000597 0.000000 0
0.000221 0.000000 0
-0.000407 0.000000 0
-0.001330 0.000000 0
-0.002595 0.000000 0
-0.004257 0.000000 0
-0.006334 0.000000 0
-0.008735 0.000000 0
-0.011205 0.000000 0
-0.012824 0.000000 0
-0.011006 0.000000 0
-0.006202 0.000000 0
-0.000355 0.000000 0
0.004620 0.000000 0
0.007873 0.000000 0
0.009335 0.000000 0
0.009558 0.000000 0
0.008992 0.000000 0
0.007927 0.000000 0
0.006600 0.000000 0
0.005184 0.000000 0
0.003778 0.000000 0
0.002385 0.000000 0
0.000930 0.000000 0
-0.000762 0.000000 0
-0.002427 0.000000 0
-0.003090 0.000000 0
-0.002200 0.000000 0
-0.000586 0.000000 0
0.000935 0.000000 0
0.002043 0.000000 0
0.002688 0.000000 0
0.002903 0.000000 0
0.002796 0.000000 0
0.003277 0.000000 0
0.004052 0.000000 0
0.001458 0.000000 0
-0.003336 0.000000 0
-0.004906 0.000000 0
-0.000646 0.000000 0
0.023539 0.000000 0
0.027815 0.000000 0
0.010005 0.000000 0
-0.006048 0.000000 0
-0.010683 0.000000 0
-0.010171 0.000000 0
-0.006970 0.000000 0
-0.000192 0.000000 0
0.003099 0.000000 0
0.003040 0.000000 0
0.001344 0.000000 0
-0.000738 0.000000 0
-0.002840 0.000000 0
-0.004704 0.000000 0
-0.006645 0.000000 0
-0.008534 0.000000 0
-0.009713 0.000000 0
-0.009432 0.000000 0
-0.007668 0.000000 0
-0.005456 0.000000 0
-0.006097 0.000000 0
-0.006843 0.000000 0
-0.007303 0.000000 0
-0.007546 0.000000 0
-0.007611 0.000000 0
-0.007534 0.000000 0
-0.007301 0.000000 0
-0.006736 0.000000 0
-0.005410 0.000000 0
-0.003363 0.000000 0
-0.000781 0.000000 0
0.002922 0.000000 0
0.006416 0.000000 0
0.005576 0.000000 0
0.000252 0.000000 0
-0.005505 0.000000 0
0.000870 0.000000 0
0.009826 0.000000 0
0.014453 0.000000 0
0.013722 0.000000 0
0.007041 0.000000 0
0.002511 0.000000 0
0.011299 0.000000 0
0.020357 0.000000 0
0.019546 0.000000 0
0.016914 0.000000 0
0.013509 0.000000 0
0.011041 0.000000 0
0.009365 0.000000 0
0.008618 0.000000 0
0.007916 0.000000 0
0.007653 0.000000 0
1.000000 -0.003575 0
1.007751 -0.010916 0
1.023241 -0.018503 0
1.046565 -0.026043 0
1.077756 -0.032970 0
1.116078 -0.038151 0
1.159257 -0.039956 0
1.203017 -0.036576 0
1.239796 -0.027724 0
1.264031 -0.015343 0
1.273647 -0.001997 0
1.269199 0.010168 0
1.252796 0.019333 0
1.227997 0.023399 0
1.200822 0.019758 0
1.180363 0.005684 0
1.178945 -0.021025 0
1.212175 -0.060693 0
1.298402 -0.102383 0
1.433891 -0.118584 0
1.567689 -0.095166 0
1.652084 -0.046832 0
1.673212 0.004884 0
1.641825 0.045571 0
1.576539 0.070364 0
1.495070 0.081565 0
1.410110 0.083298 0
1.329447 0.078443 0
1.256662 0.069393 0
1.193645 0.057777 0
1.142006 0.044354 0
1.103236 0.029224 0
1.078948 0.012140 0
1.071819 -0.006916 0
1.087090 -0.024936 0
1.124393 -0.033908 0
1.165182 -0.028844 0
1.191432 -0.014197 0
1.198150 0.002429 0
1.188265 0.016429 0
1.166325 0.026085 0
1.136679 0.030662 0
1.102851 0.031650 0
1.067093 0.039033 0
1.030206 0.047693 0
0.998891 0.022441 0
0.990517 -0.022865 0
1.009459 -0.037413 0
1.020284 0.062755 0
0.943677 0.295865 0
0.768632 0.353616 0
0.632300 0.137926 0
0.613184 -0.068538 0
0.699401 -0.138997 0
0.789175 -0.140690 0
0.721210 -0.102644 0
0.626743 -0.028957 0
0.551952 0.018043 0
0.498953 0.029295 0
0.470234 0.020949 0
0.463891 0.006304 0
0.474457 -0.010067 0
0.496700 -0.027643 0
0.530736 -0.046371 0
0.581477 -0.067149 0
0.654207 -0.083656 0
0.747550 -0.087090 0
0.849128 -0.075057 0
0.940594 -0.057242 0
1.008900 -0.052882 0
1.063983 -0.058566 0
1.122047 -0.061922 0
1.182265 -0.063317 0
1.242987 -0.063183 0
1.302937 -0.061755 0
1.360915 -0.058739 0
1.414978 -0.052785 0
1.461401 -0.040656 0
1.494026 -0.021450 0
1.506373 0.002900 0
1.494983 0.033806 0
1.458689 0.058119 0
1.392635 0.048289 0
1.298479 0.003532 0
1.213219 -0.031185 0
1.193840 -0.004759 0
1.201535 0.052251 0
1.192896 0.085386 0
1.169661 0.083254 0
1.124858 0.040742 0
1.046735 0.020283 0
0.947929 0.079558 0
0.823520 0.155174 0
0.683494 0.173451 0
0.544050 0.149544 0
0.445914 0.118934 0
0.353286 0.085987 0
0.310268 0.066192 0
0.262115 0.046753 0
0.222846 0.022804 0
0.207288 0.015555 0
1.000000 -0.007759 0
1.008017 -0.023253 0
1.023999 -0.038821 0
1.048209 -0.054522 0
1.081586 -0.069520 0
1.124412 -0.081508 0
1.175106 -0.086945 0
1.230670 -0.080545 0
1.276755 -0.061020 0
1.305621 -0.033856 0
1.316183 -0.005172 0
1.310370 0.020847 0
1.290369 0.041198 0
1.258390 0.051971 0
1.219548 0.047631 0
1.182650 0.021874 0
1.160900 -0.031814 0
1.174723 -0.119458 0
1.261745 -0.221717 0
1.435387 -0.269288 0
1.623623 -0.218194 0
1.741619 -0.105524 0
1.769159 0.010260 0
1.727387 0.096674 0
1.648358 0.146755 0
1.555830 0.166430 0
1.460756 0.165624 0
1.369946 0.153449 0
1.290796 0.135804 0
1.227511 0.114659 0
1.177934 0.090412 0
1.137979 0.063061 0
1.106796 0.031420 0
1.087915 -0.008139 0
1.097583 -0.052571 0
1.150790 -0.078088 0
1.211960 -0.067034 0
1.248284 -0.032963 0
1.257786 0.003172 0
1.249036 0.031830 0
1.227578 0.051591 0
1.197181 0.063480 0
1.160503 0.069592 0
1.122188 0.072650 0
1.092177 0.068207 0
1.066237 0.039696 0
1.039441 -0.010562 0
1.047058 -0.029761 0
1.071659 0.065788 0
1.122846 0.251658 0
1.253511 0.311384 0
1.329847 0.155454 0
1.293867 -0.067095 0
1.145043 -0.175984 0
0.929325 -0.021803 0
0.696318 0.162438 0
0.507948 0.169265 0
0.384792 0.127796 0
0.321103 0.081724 0
0.303524 0.035067 0
0.317478 -0.004217 0
0.348333 -0.032803 0
0.383717 -0.056274 0
0.417634 -0.084772 0
0.452745 -0.123467 0
0.501061 -0.166070 0
0.578927 -0.194918 0
0.687227 -0.193041 0
0.813629 -0.159770 0
0.928840 -0.123388 0
1.007734 -0.113146 0
1.063184 -0.118281 0
1.117660 -0.120941 0
1.171650 -0.120673 0
1.224298 -0.117930 0
1.275103 -0.112044 0
1.323111 -0.100490 0
1.365515 -0.079053 0
1.398087 -0.044978 0
1.413235 -0.000963 0
1.403601 0.047678 0
1.366742 0.102340 0
1.290728 0.160201 0
1.164556 0.179406 0
1.000349 0.104629 0
0.882394 0.011673 0
0.862462 0.000932 0
0.892883 0.031862 0
0.913991 0.068025 0
0.878650 0.122913 0
0.766580 0.176916 0
0.639529 0.223201 0
0.537525 0.264420 0
0.463855 0.279455 0
0.410682 0.237565 0
0.381746 0.190748 0
0.375008 0.135630 0
0.345519 0.091155 0
0.320598 0.087406 0
0.271326 0.054810 0
0.255234 0.030602 0
1.000000 -0.011598 0
1.006969 -0.034922 0
1.021929 -0.058698 0
1.045000 -0.083634 0
1.079412 -0.109176 0
1.127371 -0.131673 0
1.188532 -0.146216 0
1.269975 -0.138227 0
1.332585 -0.102677 0
1.366678 -0.054773 0
1.375911 -0.006747 0
1.366291 0.035981 0
1.340235 0.071312 0
1.295657 0.094218 0
1.235655 0.095496 0
1.168611 0.064331 0
1.105597 -0.013098 0
1.065352 -0.161538 0
1.124853 -0.363048 0
1.323930 -0.480462 0
1.586378 -0.401398 0
1.770144 -0.192368 0
1.837171 0.019117 0
1.804686 0.166373 0
1.708679 0.241922 0
1.592930 0.269168 0
1.483603 0.269182 0
1.392843 0.248403 0
1.317607 0.211829 0
1.246684 0.170641 0
1.173039 0.133887 0
1.106524 0.100363 0
1.064896 0.062206 0
1.030207 0.002299 0
1.028350 -0.087810 0
1.094071 -0.148282 0
1.176788 -0.126336 0
1.222280 -0.060022 0
1.236346 0.001679 0
1.236610 0.046640 0
1.226423 0.077943 0
1.207770 0.097738 0
1.179029 0.106645 0
1.146071 0.107362 0
1.118020 0.103646 0
1.092647 0.075179 0
1.044293 -0.003684 0
1.017833 -0.069629 0
1.070966 -0.013030 0
1.138839 0.114015 0
1.241908 0.146618 0
1.288856 0.097573 0
1.192728 0.116269 0
0.941052 0.225549 0
0.623335 0.308038 0
0.442200 0.318735 0
0.316471 0.282572 0
0.231184 0.204890 0
0.200025 0.110565 0
0.210962 0.024576 0
0.251006 -0.038503 0
0.308402 -0.076304 0
0.371182 -0.096942 0
0.425797 -0.115397 0
0.462437 -0.150574 0
0.482542 -0.209837 0
0.505451 -0.273255 0
0.558922 -0.309758 0
0.658207 -0.298855 0
0.792157 -0.246988 0
0.917827 -0.192910 0
1.000781 -0.171849 0
1.054765 -0.171784 0
1.103655 -0.169822 0
1.148291 -0.165210 0
1.189410 -0.157554 0
1.228517 -0.143199 0
1.264642 -0.115635 0
1.293383 -0.069172 0
1.306260 -0.002618 0
1.291813 0.080294 0
1.243841 0.170988 0
1.172051 0.250471 0
1.087953 0.293907 0
0.990090 0.250972 0
0.885663 0.133123 0
0.809659 0.041757 0
0.761269 0.033851 0
0.705709 0.097481 0
0.639430 0.188147 0
0.578768 0.259398 0
0.523370 0.308607 0
0.491506 0.330842 0
0.490980 0.300288 0
0.517991 0.231647 0
0.526504 0.154602 0
0.515635 0.122207 0
0.462193 0.120595 0
0.382970 0.120940 0
0.303373 0.088162 0
0.285999 0.047277 0
1.000000 -0.014734 0
1.004517 -0.045190 0
1.017938 -0.076856 0
1.036494 -0.112009 0
1.070018 -0.151894 0
1.121883 -0.190631 0
1.194250 -0.229552 0
1.337363 -0.224600 0
1.422957 -0.157725 0
1.457547 -0.077183 0
1.459875 -0.004787 0
1.445501 0.056521 0
1.416748 0.111831 0
1.356004 0.156549 0
1.274602 0.174676 0
1.168317 0.151931 0
1.027500 0.071444 0
0.891729 -0.138714 0
0.816227 -0.480295 0
0.939860 -0.730814 0
1.241718 -0.664409 0
1.520631 -0.356317 0
1.682536 -0.024282 0
1.745596 0.225166 0
1.707489 0.358512 0
1.603865 0.391506 0
1.487315 0.365712 0
1.390380 0.319446 0
1.313765 0.281964 0
1.241917 0.259229 0
1.166506 0.230572 0
1.123907 0.171206 0
1.179484 0.107739 0
1.207892 0.028408 0
1.120179 -0.116432 0
0.988602 -0.226524 0
0.934463 -0.195242 0
0.963669 -0.092519 0
1.023513 -0.011156 0
1.077086 0.041754 0
1.110634 0.080433 0
1.122164 0.110876 0
1.113826 0.131293 0
1.097523 0.133662 0
1.086661 0.121634 0
1.094241 0.113425 0
1.088171 0.064255 0
0.975400 -0.056432 0
0.831494 -0.055215 0
0.772753 0.080719 0
0.790312 0.161369 0
0.790430 0.204637 0
0.695188 0.280712 0
0.537477 0.393412 0
0.390470 0.477052 0
0.282061 0.469304 0
0.216577 0.380283 0
0.201192 0.244245 0
0.226362 0.101948 0
0.264614 -0.015912 0
0.309139 -0.101655 0
0.365366 -0.152978 0
0.436011 -0.173668 0
0.513805 -0.176026 0
0.579649 -0.180211 0
0.607104 -0.209082 0
0.589646 -0.271296 0
0.559127 -0.345797 0
0.566353 -0.393005 0
0.645604 -0.383007 0
0.784472 -0.321771 0
0.922700 -0.255220 0
1.008279 -0.223815 0
1.058701 -0.214201 0
1.099293 -0.203687 0
1.131178 -0.192272 0
1.159408 -0.175724 0
1.185580 -0.143921 0
1.208746 -0.086598 0
1.225903 0.000604 0
1.225710 0.110094 0
1.199352 0.222099 0
1.141865 0.316085 0
1.048598 0.361363 0
0.978121 0.306914 0
0.923807 0.192099 0
0.852630 0.125320 0
0.759690 0.135806 0
0.663402 0.189859 0
0.591706 0.249849 0
0.557770 0.292969 0
0.557353 0.310457 0
0.597389 0.296804 0
0.652632 0.252963 0
0.684000 0.202035 0
0.664673 0.193098 0
0.577505 0.199934 0
0.482776 0.223813 0
0.372764 0.246220 0
0.290617 0.151775 0
0.277263 0.064555 0
1.000000 -0.016122 0
1.000559 -0.052869 0
1.011605 -0.090678 0
1.020007 -0.135717 0
1.050848 -0.194569 0
1.096944 -0.255907 0
1.181064 -0.361699 0
1.443316 -0.366937 0
1.524310 -0.222863 0
1.535809 -0.091693 0
1.527182 0.005297 0
1.503769 0.079106 0
1.497891 0.160807 0
1.443960 0.236363 0
1.280275 0.283182 0
1.092279 0.311432 0
1.119699 0.263489 0
0.784190 0.049733 0
0.449862 -0.411179 0
0.340098 -0.905953 0
0.488303 -0.982170 0
0.934060 -0.633187 0
1.221015 -0.205849 0
1.372375 0.141420 0
1.461437 0.383653 0
1.478125 0.489343 0
1.414491 0.482669 0
1.324864 0.421954 0
1.273715 0.360293 0
1.269994 0.317901 0
1.289371 0.251897 0
1.263405 0.087386 0
1.089823 -0.021777 0
0.916252 0.061605 0
0.751211 0.131482 0
0.581649 0.037435 0
0.488832 -0.101401 0
0.519577 -0.149069 0
0.629040 -0.111736 0
0.741040 -0.040479 0
0.840894 0.032867 0
0.923744 0.094548 0
0.979521 0.131288 0
0.999732 0.134530 0
1.001992 0.106931 0
1.004494 0.073672 0
0.992297 0.115160 0
0.885869 0.187052 0
0.683402 0.189619 0
0.545906 0.155199 0
0.461497 0.128944 0
0.396926 0.192700 0
0.327507 0.369224 0
0.248620 0.530269 0
0.243884 0.563456 0
0.299096 0.492630 0
0.363009 0.363444 0
0.428168 0.195108 0
0.486140 0.047146 0
0.531036 -0.058199 0
0.555872 -0.139253 0
0.565480 -0.203175 0
0.578601 -0.245380 0
0.611894 -0.259033 0
0.658055 -0.243872 0
0.689446 -0.219833 0
0.678879 -0.225278 0
0.623555 -0.286464 0
0.560047 -0.385332 0
0.548543 -0.465107 0
0.632162 -0.470006 0
0.792875 -0.395657 0
0.942733 -0.307785 0
1.019499 -0.260837 0
1.060499 -0.237688 0
1.083930 -0.217671 0
1.098467 -0.197604 0
1.108304 -0.164976 0
1.106894 -0.109498 0
1.098938 -0.019584 0
1.085519 0.106841 0
1.059016 0.254828 0
1.009329 0.401220 0
0.949224 0.457646 0
0.910388 0.375758 0
0.866970 0.258609 0
0.803939 0.205868 0
0.728189 0.223075 0
0.654640 0.265460 0
0.602988 0.293773 0
0.587287 0.293744 0
0.605677 0.268982 0
0.645708 0.235557 0
0.680655 0.213671 0
0.679544 0.219600 0
0.627629 0.261090 0
0.550695 0.304098 0
0.453445 0.325330 0
0.408183 0.313092 0
0.401629 0.183656 0
0.398026 0.072814 0
1.000000 -0.015300 0
1.001239 -0.056804 0
1.000587 -0.096308 0
0.999171 -0.151255 0
1.024403 -0.228834 0
1.033360 -0.320850 0
1.142616 -0.575927 0
1.494899 -0.567848 0
1.424722 -0.250220 0
1.350222 -0.080058 0
1.334853 0.027252 0
1.289310 0.085811 0
1.365157 0.171638 0
1.359207 0.374163 0
1.298139 0.526355 0
1.139454 0.312505 0
0.795401 0.379533 0
0.488725 0.531122 0
0.303368 -0.036205 0
0.145733 -0.769255 0
0.069835 -1.258371 0
0.291891 -1.089029 0
0.703508 -0.462597 0
0.943270 -0.015255 0
1.106480 0.252762 0
1.175761 0.438452 0
1.177589 0.518974 0
1.178511 0.460223 0
1.194869 0.336835 0
1.198492 0.243574 0
1.135794 0.237163 0
0.904741 0.370755 0
0.529172 0.454893 0
0.256774 0.367021 0
0.173739 0.218172 0
0.182110 0.035857 0
0.193745 -0.133168 0
0.221715 -0.232724 0
0.302216 -0.232617 0
0.422739 -0.170098 0
0.558420 -0.102268 0
0.697808 -0.027749 0
0.822846 0.055308 0
0.893318 0.111194 0
0.900999 0.116874 0
0.861464 0.123123 0
0.806974 0.182882 0
0.798299 0.252465 0
0.799684 0.284752 0
0.758511 0.302627 0
0.655938 0.310352 0
0.495531 0.338630 0
0.383510 0.429021 0
0.406902 0.477037 0
0.533317 0.426578 0
0.628200 0.350182 0
0.674621 0.251213 0
0.699259 0.121115 0
0.714075 -0.000917 0
0.739280 -0.085642 0
0.773548 -0.136097 0
0.811041 -0.175705 0
0.834651 -0.220080 0
0.830749 -0.255478 0
0.815356 -0.257762 0
0.799827 -0.229906 0
0.793669 -0.205405 0
0.781659 -0.226965 0
0.740476 -0.317993 0
0.672649 -0.455122 0
0.635549 -0.566103 0
0.704393 -0.565792 0
0.859082 -0.450441 0
0.983035 -0.331968 0
1.031518 -0.268119 0
1.050825 -0.230242 0
1.029684 -0.200101 0
0.987728 -0.152350 0
0.941763 -0.077235 0
0.892652 0.021976 0
0.848148 0.150012 0
0.816704 0.298285 0
0.808687 0.425873 0
0.842435 0.460299 0
0.873172 0.389164 0
0.857968 0.298544 0
0.808849 0.264096 0
0.748970 0.285100 0
0.696192 0.315055 0
0.665055 0.317196 0
0.659644 0.290274 0
0.667549 0.252029 0
0.670677 0.221819 0
0.655239 0.219121 0
0.615240 0.255054 0
0.557473 0.321940 0
0.508917 0.374112 0
0.484996 0.366319 0
0.509978 0.298029 0
0.579856 0.161925 0
0.587569 0.070708 0
1.000000 -0.017368 0
1.000879 -0.053465 0
0.995252 -0.088613 0
0.978552 -0.159536 0
0.986791 -0.228761 0
0.937724 -0.374124 0
1.032905 -0.823241 0
0.741605 -0.570858 0
0.002299 0.000000 0
0.002568 0.000000 0
0.561172 0.068033 0
0.600154 0.048800 0
0.801464 0.090908 0
1.103321 0.303380 0
0.965203 0.502934 0
0.771977 0.814169 0
0.215000 0.914217 0
0.117025 0.541765 0
0.209502 -0.068188 0
0.231939 -0.672420 0
0.164966 -1.128328 0
0.059190 -1.266859 0
0.344060 -0.857228 0
0.645815 -0.261553 0
0.815425 0.151162 0
0.912319 0.418234 0
0.952967 0.479919 0
0.929752 0.404675 0
0.889982 0.340313 0
0.820929 0.376977 0
0.578205 0.545650 0
0.274147 0.694009 0
0.169109 0.626190 0
0.164877 0.417039 0
0.189429 0.206148 0
0.203071 0.017431 0
0.192463 -0.141005 0
0.181208 -0.257538 0
0.199545 -0.312757 0
0.274219 -0.296681 0
0.383286 -0.242200 0
0.497692 -0.169876 0
0.610556 -0.064219 0
0.705608 0.056379 0
0.755769 0.138788 0
0.764657 0.167700 0
0.783508 0.178327 0
0.854081 0.194344 0
0.943729 0.229410 0
1.016107 0.298949 0
1.056988 0.391927 0
1.057582 0.465130 0
1.088254 0.457855 0
1.164389 0.380464 0
1.134592 0.342161 0
1.009423 0.351329 0
0.910736 0.292386 0
0.859262 0.155657 0
0.831642 0.007127 0
0.821050 -0.117670 0
0.826727 -0.211012 0
0.865315 -0.264276 0
0.923343 -0.265086 0
0.973856 -0.239737 0
0.997593 -0.212950 0
1.012639 -0.198145 0
1.035212 -0.207109 0
1.066347 -0.233270 0
1.088521 -0.276322 0
1.069770 -0.360180 0
0.988032 -0.501751 0
0.883535 -0.619190 0
0.867167 -0.586428 0
0.958601 -0.433275 0
1.011911 -0.305480 0
1.026077 -0.215839 0
0.979456 -0.134509 0
0.905997 -0.077058 0
0.837973 -0.014424 0
0.781517 0.074028 0
0.743701 0.182785 0
0.738825 0.294285 0
0.779475 0.375485 0
0.855346 0.393158 0
0.909121 0.360220 0
0.907582 0.322927 0
0.870750 0.314861 0
0.827503 0.335726 0
0.788417 0.349369 0
0.765769 0.330315 0
0.755807 0.291244 0
0.744589 0.257942 0
0.715008 0.247860 0
0.662066 0.269102 0
0.600307 0.317360 0
0.559511 0.367406 0
0.571598 0.376568 0
0.640237 0.324262 0
0.734939 0.218225 0
0.818333 0.106059 0
0.830332 0.056892 0
1.000000 -0.016187 0
1.001753 -0.052065 0
0.979478 -0.073985 0
0.980022 -0.142799 0
0.916102 -0.188010 0
0.883600 -0.366968 0
0.708363 -0.458000 0
0.000000 -0.002012 0
-0.637107 0.172338 0
-0.567004 0.000000 0
0.000000 0.000000 0
0.069539 -0.152977 0
0.051394 -0.331530 0
0.064285 0.210423 0
0.033577 0.857698 0
-0.083581 1.062708 0
-0.135886 1.034484 0
0.004523 0.536619 0
0.129213 -0.151119 0
0.247202 -0.724720 0
0.272809 -1.085623 0
0.213255 -1.268123 0
0.190921 -1.049221 0
0.434843 -0.486620 0
0.626348 -0.013741 0
0.792884 0.300910 0
0.824064 0.501541 0
0.682623 0.523209 0
0.550482 0.445659 0
0.424004 0.555351 0
0.196352 0.783946 0
0.142786 0.779852 0
0.259868 0.564164 0
0.334590 0.346702 0
0.330508 0.179980 0
0.296996 0.032825 0
0.261916 -0.111303 0
0.240636 -0.239804 0
0.233494 -0.325626 0
0.255079 -0.353837 0
0.310110 -0.325740 0
0.379716 -0.255017 0
0.452789 -0.152605 0
0.547126 -0.034017 0
0.656303 0.057826 0
0.761702 0.095387 0
0.854695 0.093461 0
0.947971 0.092246 0
1.052905 0.122728 0
1.184545 0.189371 0
1.334127 0.268879 0
1.475820 0.307367 0
1.531010 0.322217 0
1.428533 0.430701 0
1.223408 0.581545 0
1.094512 0.574041 0
1.035671 0.401377 0
1.008217 0.200212 0
0.996489 0.037296 0
0.999752 -0.080725 0
1.019308 -0.180360 0
1.047334 -0.272319 0
1.077328 -0.328620 0
1.107548 -0.329728 0
1.127300 -0.296544 0
1.147324 -0.267523 0
1.168574 -0.259112 0
1.193642 -0.280273 0
1.223808 -0.321416 0
1.255104 -0.354634 0
1.248322 -0.379868 0
1.155696 -0.444927 0
1.039088 -0.525508 0
1.006981 -0.476714 0
1.018551 -0.335597 0
1.004107 -0.197789 0
0.971577 -0.080023 0
0.918623 -0.010870 0
0.852735 0.047242 0
0.801231 0.116244 0
0.783091 0.192700 0
0.807333 0.262507 0
0.867620 0.309348 0
0.936912 0.330648 0
0.978723 0.336923 0
0.996025 0.336910 0
0.994704 0.344169 0
0.972459 0.367427 0
0.912735 0.376783 0
0.859361 0.349800 0
0.819651 0.311448 0
0.778979 0.292822 0
0.732304 0.304336 0
0.689312 0.333816 0
0.674974 0.357603 0
0.713248 0.350642 0
0.798713 0.293380 0
0.891665 0.202971 0
0.973100 0.119927 0
1.013962 0.066526 0
1.021500 0.047478 0
1.000000 -0.019129 0
0.990784 -0.032953 0
0.964726 -0.066886 0
0.960124 -0.096164 0
0.866741 -0.132344 0
0.839195 -0.166389 0
0.497821 -0.012965 0
0.356809 0.064183 0
0.000000 0.000000 0
0.000000 0.000000 0
0.000000 0.000000 0
0.000000 0.000000 0
-0.151888 0.097250 0
-0.323406 0.321195 0
-0.320824 0.650799 0
-0.387410 0.983631 0
-0.164541 0.826112 0
0.135827 0.276665 0
0.333083 -0.310868 0
0.408517 -0.816017 0
0.425161 -1.094382 0
0.410360 -1.184971 0
0.283600 -1.078816 0
0.370052 -0.696980 0
0.558258 -0.206878 0
0.712488 0.220519 0
0.728889 0.590181 0
0.645946 0.678257 0
0.511642 0.598933 0
0.289299 0.731108 0
0.215670 0.826869 0
0.342290 0.630494 0
0.420991 0.434388 0
0.374831 0.346400 0
0.311816 0.243744 0
0.275344 0.086024 0
0.259458 -0.084643 0
0.256716 -0.229114 0
0.270837 -0.327198 0
0.301058 -0.373296 0
0.339453 -0.366835 0
0.387549 -0.312553 0
0.448629 -0.231626 0
0.536453 -0.147133 0
0.653056 -0.075786 0
0.778017 -0.030690 0
0.881513 -0.007939 0
0.948332 -0.003864 0
0.999515 -0.007162 0
1.062602 0.017729 0
1.131419 0.100655 0
1.158859 0.268249 0
1.083192 0.505145 0
0.952306 0.688069 0
0.934497 0.676184 0
1.019096 0.539068 0
1.083850 0.378684 0
1.122111 0.194842 0
1.160832 0.015594 0
1.211079 -0.140487 0
1.271323 -0.258592 0
1.312057 -0.322295 0
1.324148 -0.325299 0
1.312945 -0.289707 0
1.295139 -0.252724 0
1.267979 -0.239418 0