# vtk DataFile Version 2.0
generated by CFD-lab course output (written by Tobias Neckel) 
ASCII

DATASET STRUCTURED_GRID
DIMENSIONS  101 21 1 
POINTS 2121 float

0.000000 0.000000 0
0.100000 0.000000 0
0.200000 0.000000 0
0.300000 0.000000 0
0.400000 0.000000 0
0.500000 0.000000 0
0.600000 0.000000 0
0.700000 0.000000 0
0.800000 0.000000 0
0.900000 0.000000 0
1.000000 0.000000 0
1.100000 0.000000 0
1.200000 0.000000 0
1.300000 0.000000 0
1.400000 0.000000 0
1.500000 0.000000 0
1.600000 0.000000 0
1.700000 0.000000 0
1.800000 0.000000 0
1.900000 0.000000 0
2.000000 0.000000 0
2.100000 0.000000 0
2.200000 0.000000 0
2.300000 0.000000 0
2.400000 0.000000 0
2.500000 0.000000 0
2.600000 0.000000 0
2.700000 0.000000 0
2.800000 0.000000 0
2.900000 0.000000 0
3.000000 0.000000 0
3.100000 0.000000 0
3.200000 0.000000 0
3.300000 0.000000 0
3.400000 0.000000 0
3.500000 0.000000 0
3.600000 0.000000 0
3.700000 0.000000 0
3.800000 0.000000 0
3.900000 0.000000 0
4.000000 0.000000 0
4.100000 0.000000 0
4.200000 0.000000 0
4.300000 0.000000 0
4.400000 0.000000 0
4.500000 0.000000 0
4.600000 0.000000 0
4.700000 0.000000 0
4.800000 0.000000 0
4.900000 0.000000 0
5.000000 0.000000 0
5.100000 0.000000 0
5.200000 0.000000 0
5.300000 0.000000 0
5.400000 0.000000 0
5.500000 0.000000 0
5.600000 0.000000 0
5.700000 0.000000 0
5.800000 0.000000 0
5.900000 0.000000 0
6.000000 0.000000 0
6.100000 0.000000 0
6.200000 0.000000 0
6.300000 0.000000 0
6.400000 0.000000 0
6.500000 0.000000 0
6.600000 0.000000 0
6.700000 0.000000 0
6.800000 0.000000 0
6.900000 0.000000 0
7.000000 0.000000 0
7.100000 0.000000 0
7.200000 0.000000 0
7.300000 0.000000 0
7.400000 0.000000 0
7.500000 0.000000 0
7.600000 0.000000 0
7.700000 0.000000 0
7.800000 0.000000 0
7.900000 0.000000 0
8.000000 0.000000 0
8.100000 0.000000 0
8.200000 0.000000 0
8.300000 0.000000 0
8.400000 0.000000 0
8.500000 0.000000 0
8.600000 0.000000 0
8.700000 0.000000 0
8.800000 0.000000 0
8.900000 0.000000 0
9.000000 0.000000 0
9.100000 0.000000 0
9.200000 0.000000 0
9.300000 0.000000 0
9.400000 0.000000 0
9.500000 0.000000 0
9.600000 0.000000 0
9.700000 0.000000 0
9.800000 0.000000 0
9.900000 0.000000 0
10.000000 0.000000 0
0.000000 0.100000 0
0.100000 0.100000 0
0.200000 0.100000 0
0.300000 0.100000 0
0.400000 0.100000 0
0.500000 0.100000 0
0.600000 0.100000 0
0.700000 0.100000 0
0.800000 0.100000 0
0.900000 0.100000 0
1.000000 0.100000 0
1.100000 0.100000 0
1.200000 0.100000 0
1.300000 0.100000 0
1.400000 0.100000 0
1.500000 0.100000 0
1.600000 0.100000 0
1.700000 0.100000 0
1.800000 0.100000 0
1.900000 0.100000 0
2.000000 0.100000 0
2.100000 0.100000 0
2.200000 0.100000 0
2.300000 0.100000 0
2.400000 0.100000 0
2.500000 0.100000 0
2.600000 0.100000 0
2.700000 0.100000 0
2.800000 0.100000 0
2.900000 0.100000 0
3.000000 0.100000 0
3.100000 0.100000 0
3.200000 0.100000 0
3.300000 0.100000 0
3.400000 0.100000 0
3.500000 0.100000 0
3.600000 0.100000 0
3.700000 0.100000 0
3.800000 0.100000 0
3.900000 0.100000 0
4.000000 0.100000 0
4.100000 0.100000 0
4.200000 0.100000 0
4.300000 0.100000 0
4.400000 0.100000 0
4.500000 0.100000 0
4.600000 0.100000 0
4.700000 0.100000 0
4.800000 0.100000 0
4.900000 0.100000 0
5.000000 0.100000 0
5.100000 0.100000 0
5.200000 0.100000 0
5.300000 0.100000 0
5.400000 0.100000 0
5.500000 0.100000 0
5.600000 0.100000 0
5.700000 0.100000 0
5.800000 0.100000 0
5.900000 0.100000 0
6.000000 0.100000 0
6.100000 0.100000 0
6.200000 0.100000 0
6.300000 0.100000 0
6.400000 0.100000 0
6.500000 0.100000 0
6.600000 0.100000 0
6.700000 0.100000 0
6.800000 0.100000 0
6.900000 0.100000 0
7.000000 0.100000 0
7.100000 0.100000 0
7.200000 0.100000 0
7.300000 0.100000 0
7.400000 0.100000 0
7.500000 0.100000 0
7.600000 0.100000 0
7.700000 0.100000 0
7.800000 0.100000 0
7.900000 0.100000 0
8.000000 0.100000 0
8.100000 0.100000 0
8.200000 0.100000 0
8.300000 0.100000 0
8.400000 0.100000 0
8.500000 0.100000 0
8.600000 0.100000 0
8.700000 0.100000 0
8.800000 0.100000 0
8.900000 0.100000 0
9.000000 0.100000 0
9.100000 0.100000 0
9.200000 0.100000 0
9.300000 0.100000 0
9.400000 0.100000 0
9.500000 0.100000 0
9.600000 0.100000 0
9.700000 0.100000 0
9.800000 0.100000 0
9.900000 0.100000 0
10.000000 0.100000 0
0.000000 0.200000 0
0.100000 0.200000 0
0.200000 0.200000 0
0.300000 0.200000 0
0.400000 0.200000 0
0.500000 0.200000 0
0.600000 0.200000 0
0.700000 0.200000 0
0.800000 0.200000 0
0.900000 0.200000 0
1.000000 0.200000 0
1.100000 0.200000 0
1.200000 0.200000 0
1.300000 0.200000 0
1.400000 0.200000 0
1.500000 0.200000 0
1.600000 0.200000 0
1.700000 0.200000 0
1.800000 0.200000 0
1.900000 0.200000 0
2.000000 0.200000 0
2.100000 0.200000 0
2.200000 0.200000 0
2.300000 0.200000 0
2.400000 0.200000 0
2.500000 0.200000 0
2.600000 0.200000 0
2.700000 0.200000 0
2.800000 0.200000 0
2.900000 0.200000 0
3.000000 0.200000 0
3.100000 0.200000 0
3.200000 0.200000 0
3.300000 0.200000 0
3.400000 0.200000 0
3.500000 0.200000 0
3.600000 0.200000 0
3.700000 0.200000 0
3.800000 0.200000 0
3.900000 0.200000 0
4.000000 0.200000 0
4.100000 0.200000 0
4.200000 0.200000 0
4.300000 0.200000 0
4.400000 0.200000 0
4.500000 0.200000 0
4.600000 0.200000 0
4.700000 0.200000 0
4.800000 0.200000 0
4.900000 0.200000 0
5.000000 0.200000 0
5.100000 0.200000 0
5.200000 0.200000 0
5.300000 0.200000 0
5.400000 0.200000 0
5.500000 0.200000 0
5.600000 0.200000 0
5.700000 0.200000 0
5.800000 0.200000 0
5.900000 0.200000 0
6.000000 0.200000 0
6.100000 0.200000 0
6.200000 0.200000 0
6.300000 0.200000 0
6.400000 0.200000 0
6.500000 0.200000 0
6.600000 0.200000 0
6.700000 0.200000 0
6.800000 0.200000 0
6.900000 0.200000 0
7.000000 0.200000 0
7.100000 0.200000 0
7.200000 0.200000 0
7.300000 0.200000 0
7.400000 0.200000 0
7.500000 0.200000 0
7.600000 0.200000 0
7.700000 0.200000 0
7.800000 0.200000 0
7.900000 0.200000 0
8.000000 0.200000 0
8.100000 0.200000 0
8.200000 0.200000 0
8.300000 0.200000 0
8.400000 0.200000 0
8.500000 0.200000 0
8.600000 0.200000 0
8.700000 0.200000 0
8.800000 0.200000 0
8.900000 0.200000 0
9.000000 0.200000 0
9.100000 0.200000 0
9.200000 0.200000 0
9.300000 0.200000 0
9.400000 0.200000 0
9.500000 0.200000 0
9.600000 0.200000 0
9.700000 0.200000 0
9.800000 0.200000 0
9.900000 0.200000 0
10.000000 0.200000 0
0.000000 0.300000 0
0.100000 0.300000 0
0.200000 0.300000 0
0.300000 0.300000 0
0.400000 0.300000 0
0.500000 0.300000 0
0.600000 0.300000 0
0.700000 0.300000 0
0.800000 0.300000 0
0.900000 0.300000 0
1.000000 0.300000 0
1.100000 0.300000 0
1.200000 0.300000 0
1.300000 0.300000 0
1.400000 0.300000 0
1.500000 0.300000 0
1.600000 0.300000 0
1.700000 0.300000 0
1.800000 0.300000 0
1.900000 0.300000 0
2.000000 0.300000 0
2.100000 0.300000 0
2.200000 0.300000 0
2.300000 0.300000 0
2.400000 0.300000 0
2.500000 0.300000 0
2.600000 0.300000 0
2.700000 0.300000 0
2.800000 0.300000 0
2.900000 0.300000 0
3.000000 0.300000 0
3.100000 0.300000 0
3.200000 0.300000 0
3.300000 0.300000 0
3.400000 0.300000 0
3.500000 0.300000 0
3.600000 0.300000 0
3.700000 0.300000 0
3.800000 0.300000 0
3.900000 0.300000 0
4.000000 0.300000 0
4.100000 0.300000 0
4.200000 0.300000 0
4.300000 0.300000 0
4.400000 0.300000 0
4.500000 0.300000 0
4.600000 0.300000 0
4.700000 0.300000 0
4.800000 0.300000 0
4.900000 0.300000 0
5.000000 0.300000 0
5.100000 0.300000 0
5.200000 0.300000 0
5.300000 0.300000 0
5.400000 0.300000 0
5.500000 0.300000 0
5.600000 0.300000 0
5.700000 0.300000 0
5.800000 0.300000 0
5.900000 0.300000 0
6.000000 0.300000 0
6.100000 0.300000 0
6.200000 0.300000 0
6.300000 0.300000 0
6.400000 0.300000 0
6.500000 0.300000 0
6.600000 0.300000 0
6.700000 0.300000 0
6.800000 0.300000 0
6.900000 0.300000 0
7.000000 0.300000 0
7.100000 0.300000 0
7.200000 0.300000 0
7.300000 0.300000 0
7.400000 0.300000 0
7.500000 0.300000 0
7.600000 0.300000 0
7.700000 0.300000 0
7.800000 0.300000 0
7.900000 0.300000 0
8.000000 0.300000 0
8.100000 0.300000 0
8.200000 0.300000 0
8.300000 0.300000 0
8.400000 0.300000 0
8.500000 0.300000 0
8.600000 0.300000 0
8.700000 0.300000 0
8.800000 0.300000 0
8.900000 0.300000 0
9.000000 0.300000 0
9.100000 0.300000 0
9.200000 0.300000 0
9.300000 0.300000 0
9.400000 0.300000 0
9.500000 0.300000 0
9.600000 0.300000 0
9.700000 0.300000 0
9.800000 0.300000 0
9.900000 0.300000 0
10.000000 0.300000 0
0.000000 0.400000 0
0.100000 0.400000 0
0.200000 0.400000 0
0.300000 0.400000 0
0.400000 0.400000 0
0.500000 0.400000 0
0.600000 0.400000 0
0.700000 0.400000 0
0.800000 0.400000 0
0.900000 0.400000 0
1.000000 0.400000 0
1.100000 0.400000 0
1.200000 0.400000 0
1.300000 0.400000 0
1.400000 0.400000 0
1.500000 0.400000 0
1.600000 0.400000 0
1.700000 0.400000 0
1.800000 0.400000 0
1.900000 0.400000 0
2.000000 0.400000 0
2.100000 0.400000 0
2.200000 0.400000 0
2.300000 0.400000 0
2.400000 0.400000 0
2.500000 0.400000 0
2.600000 0.400000 0
2.700000 0.400000 0
2.800000 0.400000 0
2.900000 0.400000 0
3.000000 0.400000 0
3.100000 0.400000 0
3.200000 0.400000 0
3.300000 0.400000 0
3.400000 0.400000 0
3.500000 0.400000 0
3.600000 0.400000 0
3.700000 0.400000 0
3.800000 0.400000 0
3.900000 0.400000 0
4.000000 0.400000 0
4.100000 0.400000 0
4.200000 0.400000 0
4.300000 0.400000 0
4.400000 0.400000 0
4.500000 0.400000 0
4.600000 0.400000 0
4.700000 0.400000 0
4.800000 0.400000 0
4.900000 0.400000 0
5.000000 0.400000 0
5.100000 0.400000 0
5.200000 0.400000 0
5.300000 0.400000 0
5.400000 0.400000 0
5.500000 0.400000 0
5.600000 0.400000 0
5.700000 0.400000 0
5.800000 0.400000 0
5.900000 0.400000 0
6.000000 0.400000 0
6.100000 0.400000 0
6.200000 0.400000 0
6.300000 0.400000 0
6.400000 0.400000 0
6.500000 0.400000 0
6.600000 0.400000 0
6.700000 0.400000 0
6.800000 0.400000 0
6.900000 0.400000 0
7.000000 0.400000 0
7.100000 0.400000 0
7.200000 0.400000 0
7.300000 0.400000 0
7.400000 0.400000 0
7.500000 0.400000 0
7.600000 0.400000 0
7.700000 0.400000 0
7.800000 0.400000 0
7.900000 0.400000 0
8.000000 0.400000 0
8.100000 0.400000 0
8.200000 0.400000 0
8.300000 0.400000 0
8.400000 0.400000 0
8.500000 0.400000 0
8.600000 0.400000 0
[...]
POINT_DATA 2121 

VECTORS velocity float
0.500000 0.000000 0
-0.000051 0.000000 0
-0.000157 0.000000 0
-0.000308 0.000000 0
-0.000478 0.000000 0
-0.000648 0.000000 0
-0.000801 0.000000 0
-0.000923 0.000000 0
-0.000970 0.000000 0
-0.000825 0.000000 0
-0.000425 0.000000 0
0.000195 0.000000 0
0.000958 0.000000 0
0.001778 0.000000 0
0.002576 0.000000 0
0.003293 0.000000 0
0.003905 0.000000 0
0.004234 0.000000 0
0.004270 0.000000 0
0.006200 0.000000 0
0.006644 0.000000 0
0.007039 0.000000 0
0.005351 0.000000 0
0.003426 0.000000 0
0.000525 0.000000 0
-0.002678 0.000000 0
-0.010694 0.000000 0
-0.028702 0.000000 0
-0.041483 0.000000 0
-0.037235 0.000000 0
-0.042827 0.000000 0
-0.037646 0.000000 0
-0.023648 0.000000 0
-0.005831 0.000000 0
0.006150 0.000000 0
0.019425 0.000000 0
0.029672 0.000000 0
0.029495 0.000000 0
0.025668 0.000000 0
0.020155 0.000000 0
0.014912 0.000000 0
0.013480 0.000000 0
0.013361 0.000000 0
0.009979 0.000000 0
0.003936 0.000000 0
-0.000888 0.000000 0
-0.004339 0.000000 0
-0.002601 0.000000 0
-0.000635 0.000000 0
-0.000515 0.000000 0
-0.000978 0.000000 0
-0.001055 0.000000 0
-0.000945 0.000000 0
-0.000892 0.000000 0
-0.000911 0.000000 0
-0.000939 0.000000 0
-0.000951 0.000000 0
-0.000950 0.000000 0
-0.000944 0.000000 0
-0.000930 0.000000 0
-0.000910 0.000000 0
-0.000888 0.000000 0
-0.000868 0.000000 0
-0.000847 0.000000 0
-0.000815 0.000000 0
-0.000773 0.000000 0
-0.000730 0.000000 0
-0.000697 0.000000 0
-0.000672 0.000000 0
-0.000641 0.000000 0
-0.000596 0.000000 0
-0.000544 0.000000 0
-0.000504 0.000000 0
-0.000485 0.000000 0
-0.000481 0.000000 0
-0.000470 0.000000 0
-0.000433 0.000000 0
-0.000374 0.000000 0
-0.000318 0.000000 0
-0.000288 0.000000 0
-0.000295 0.000000 0
-0.000330 0.000000 0
-0.000369 0.000000 0
-0.000382 0.000000 0
-0.000340 0.000000 0
-0.000301 0.000000 0
-0.000271 0.000000 0
-0.000249 0.000000 0
-0.000233 0.000000 0
-0.000221 0.000000 0
-0.000213 0.000000 0
-0.000206 0.000000 0
-0.000202 0.000000 0
-0.000199 0.000000 0
-0.000197 0.000000 0
-0.000195 0.000000 0
-0.000195 0.000000 0
-0.000194 0.000000 0
-0.000194 0.000000 0
-0.000194 0.000000 0
-0.000194 0.000000 0
1.000000 -0.003821 0
1.008219 -0.012150 0
1.025640 -0.021680 0
1.053360 -0.031956 0
1.092095 -0.042148 0
1.141467 -0.050871 0
1.199264 -0.056375 0
1.261536 -0.056639 0
1.320536 -0.050832 0
1.370090 -0.039859 0
1.405348 -0.025366 0
1.424156 -0.009059 0
1.425664 0.007904 0
1.409801 0.024662 0
1.377522 0.040665 0
1.329561 0.055535 0
1.267472 0.068440 0
1.193335 0.077649 0
1.110629 0.092768 0
1.024958 0.108054 0
0.908477 0.116635 0
0.759654 0.123453 0
0.651262 0.114990 0
0.556632 0.099988 0
0.466057 0.081317 0
0.360753 0.061311 0
0.235729 -0.001205 0
0.227398 -0.164303 0
0.436934 -0.315453 0
0.818085 -0.357485 0
1.197703 -0.349255 0
1.510026 -0.310446 0
1.763803 -0.211456 0
1.935863 -0.085551 0
2.016660 0.011968 0
1.999687 0.103173 0
1.890538 0.181041 0
1.725508 0.204214 0
1.545544 0.191916 0
1.380836 0.162509 0
1.245052 0.129800 0
1.136183 0.125363 0
1.057845 0.137533 0
0.998564 0.111974 0
0.956903 0.055611 0
0.925517 0.005915 0
0.890295 -0.025417 0
0.844962 -0.025359 0
0.815136 -0.009042 0
0.800104 -0.004792 0
0.803915 -0.007765 0
0.812859 -0.008757 0
0.820016 -0.007797 0
0.825781 -0.007030 0
0.832120 -0.006925 0
0.839268 -0.006996 0
0.846726 -0.006968 0
0.854111 -0.006856 0
0.861255 -0.006709 0
0.868133 -0.006515 0
0.874816 -0.006277 0
0.881392 -0.006044 0
0.887859 -0.005858 0
0.894099 -0.005675 0
0.900000 -0.005405 0
0.905574 -0.005036 0
0.910914 -0.004664 0
0.916065 -0.004383 0
0.920929 -0.004178 0
0.925334 -0.003924 0
0.929220 -0.003535 0
0.932718 -0.003079 0
0.936039 -0.002715 0
0.939296 -0.002548 0
0.942410 -0.002529 0
0.945148 -0.002455 0
0.947341 -0.002137 0
0.949039 -0.001608 0
0.950442 -0.001086 0
0.951810 -0.000792 0
0.953318 -0.000849 0
0.954982 -0.001173 0
0.956746 -0.001541 0
0.958305 -0.001666 0
0.959580 -0.001443 0
0.960614 -0.001104 0
0.961448 -0.000826 0
0.962118 -0.000616 0
0.962657 -0.000461 0
0.963091 -0.000346 0
0.963441 -0.000261 0
0.963726 -0.000198 0
0.963958 -0.000153 0
0.964148 -0.000119 0
0.964306 -0.000097 0
0.964441 -0.000081 0
0.964559 -0.000083 0
0.964672 -0.000088 0
0.964791 -0.000169 0
0.964947 -0.000323 0
0.965144 -0.000390 0
1.000000 -0.008220 0
1.008373 -0.025641 0
1.026087 -0.045142 0
1.054768 -0.066456 0
1.096091 -0.088109 0
1.150552 -0.107173 0
1.216097 -0.120074 0
1.291070 -0.121278 0
1.360438 -0.108561 0
1.417420 -0.084820 0
1.456446 -0.054074 0
1.477127 -0.020325 0
1.479293 0.014345 0
1.462345 0.048133 0
1.429012 0.080231 0
1.379132 0.110041 0
1.314758 0.136218 0
1.237810 0.156836 0
1.149059 0.168370 0
1.050628 0.202145 0
0.928800 0.265298 0
0.892317 0.257210 0
0.777058 0.203016 0
0.610191 0.185201 0
0.526645 0.195875 0
0.350724 0.230323 0
0.202701 0.133351 0
0.203320 -0.201208 0
0.284962 -0.590690 0
0.510560 -0.760772 0
0.874798 -0.691945 0
1.171575 -0.566103 0
1.360639 -0.425840 0
1.532294 -0.252860 0
1.668190 -0.063826 0
1.728142 0.126119 0
1.720853 0.274176 0
1.649888 0.344992 0
1.537875 0.344670 0
1.409052 0.300491 0
1.278345 0.244652 0
1.161903 0.187205 0
1.071127 0.137618 0
1.005945 0.100941 0
0.978990 0.073047 0
0.974964 0.066608 0
0.973134 0.080554 0
0.957658 0.075159 0
0.946174 0.044859 0
0.935961 0.011221 0
0.911331 -0.012755 0
0.884235 -0.016100 0
0.864955 -0.012922 0
0.857066 -0.012104 0
0.859784 -0.013486 0
0.867297 -0.014604 0
0.875700 -0.014842 0
0.883700 -0.014529 0
0.891216 -0.014021 0
0.898484 -0.013560 0
0.905696 -0.013259 0
0.912881 -0.013042 0
0.919947 -0.012706 0
0.926805 -0.012141 0
0.933449 -0.011475 0
0.939904 -0.010913 0
0.946119 -0.010491 0
0.951960 -0.010015 0
0.957291 -0.009269 0
0.962106 -0.008292 0
0.966561 -0.007385 0
0.970816 -0.006820 0
0.974909 -0.006579 0
0.978721 -0.006372 0
0.982014 -0.005853 0
0.984692 -0.004932 0
0.986877 -0.003892 0
0.988863 -0.003102 0
0.990923 -0.002773 0
0.993151 -0.002878 0
0.995460 -0.003173 0
0.997609 -0.003429 0
0.999330 -0.003325 0
1.000558 -0.002835 0
1.001508 -0.002311 0
1.002354 -0.001870 0
1.003112 -0.001505 0
1.003783 -0.001210 0
1.004367 -0.000974 0
1.004872 -0.000786 0
1.005305 -0.000637 0
1.005674 -0.000518 0
1.005988 -0.000424 0
1.006252 -0.000350 0
1.006477 -0.000294 0
1.006666 -0.000254 0
1.006833 -0.000233 0
1.006966 -0.000235 0
1.007099 -0.000277 0
1.007150 -0.000355 0
1.007147 -0.000395 0
1.000000 -0.012192 0
1.007072 -0.038235 0
1.023093 -0.068074 0
1.050799 -0.101959 0
1.094205 -0.137932 0
1.155030 -0.170878 0
1.231230 -0.196894 0
1.334443 -0.200982 0
1.420720 -0.177184 0
1.481673 -0.135869 0
1.522361 -0.085076 0
1.544308 -0.031909 0
1.547466 0.022684 0
1.532672 0.074940 0
1.498372 0.123875 0
1.441903 0.169786 0
1.370951 0.209760 0
1.290941 0.243346 0
1.199640 0.279948 0
1.093486 0.328311 0
1.044209 0.274944 0
0.943022 0.275194 0
0.738385 0.397115 0
0.707208 0.350399 0
0.570919 0.340782 0
0.393586 0.385254 0
0.426358 0.146197 0
0.557961 -0.246566 0
0.576089 -0.622695 0
0.527578 -0.947323 0
0.625533 -1.010270 0
0.876939 -0.796288 0
1.065025 -0.572177 0
1.175163 -0.393103 0
1.268606 -0.183881 0
1.364985 0.050509 0
1.433243 0.259293 0
1.448111 0.387191 0
1.411274 0.432751 0
1.337918 0.422038 0
1.251243 0.376949 0
1.164804 0.332580 0
1.066861 0.293490 0
0.981475 0.204111 0
0.927378 0.086592 0
0.904964 0.011770 0
0.897146 -0.008111 0
0.914576 0.001602 0
0.924403 0.012656 0
0.922212 0.030051 0
0.899993 0.043960 0
0.872984 0.037618 0
0.852557 0.019373 0
0.844930 -0.001858 0
0.853240 -0.017156 0
0.864221 -0.022911 0
0.873131 -0.023371 0
0.880348 -0.022372 0
0.887082 -0.021493 0
0.894043 -0.020996 0
0.901386 -0.020673 0
0.908960 -0.020294 0
0.916570 -0.019782 0
0.924120 -0.019177 0
0.931549 -0.018504 0
0.938722 -0.017707 0
0.945437 -0.016720 0
0.951541 -0.015554 0
0.957071 -0.014324 0
0.962235 -0.013194 0
0.967184 -0.012246 0
0.971891 -0.011428 0
0.976158 -0.010620 0
0.979767 -0.009654 0
0.982711 -0.008500 0
0.985224 -0.007318 0
0.987630 -0.006308 0
0.990140 -0.005655 0
0.992728 -0.005375 0
0.995285 -0.005329 0
0.997546 -0.005307 0
0.999325 -0.005045 0
1.000538 -0.004491 0
1.001543 -0.003844 0
1.002468 -0.003240 0
1.003304 -0.002709 0
1.004053 -0.002255 0
1.004718 -0.001872 0
1.005299 -0.001551 0
1.005804 -0.001284 0
1.006238 -0.001064 0
1.006609 -0.000881 0
1.006923 -0.000731 0
1.007188 -0.000609 0
1.007411 -0.000512 0
1.007596 -0.000437 0
1.007750 -0.000384 0
1.007871 -0.000355 0
1.007962 -0.000353 0
1.008001 -0.000372 0
1.007988 -0.000384 0
1.000000 -0.015289 0
1.004217 -0.048730 0
1.016405 -0.088865 0
1.039599 -0.137566 0
1.084528 -0.192339 0
1.150503 -0.244198 0
1.239704 -0.299488 0
1.405365 -0.310769 0
1.509891 -0.255793 0
1.562599 -0.186463 0
1.597279 -0.116711 0
1.619144 -0.045432 0
1.625072 0.025978 0
1.618172 0.097224 0
1.595589 0.170998 0
1.534010 0.237460 0
1.439437 0.287178 0
1.331583 0.328145 0
1.225427 0.365823 0
1.147310 0.357574 0
1.091440 0.415761 0
0.823059 0.563033 0
0.749727 0.438829 0
0.798955 0.352665 0
0.569832 0.509496 0
0.515497 0.374883 0
0.652737 -0.031026 0
0.717500 -0.350941 0
0.707566 -0.560307 0
0.640673 -0.810218 0
0.575117 -1.041308 0
0.650688 -1.005596 0
0.834709 -0.724065 0
0.960837 -0.456441 0
1.032642 -0.253648 0
1.091051 -0.038519 0
1.160128 0.191049 0
1.217964 0.366960 0
1.252930 0.454862 0
1.248261 0.460521 0
1.212857 0.417766 0
1.157509 0.371587 0
1.110054 0.320945 0
1.072922 0.240424 0
1.000160 0.149558 0
0.935602 0.096840 0
0.894629 0.070943 0
0.890272 0.047902 0
0.894597 0.037222 0
0.898024 0.035631 0
0.910517 0.036474 0
0.925236 0.031337 0
0.935206 0.015132 0
0.933127 -0.012786 0
0.914208 -0.032777 0
0.895520 -0.034495 0
0.884406 -0.030969 0
0.880871 -0.028480 0
0.882878 -0.027715 0
0.888427 -0.027863 0
0.895988 -0.028176 0
0.904529 -0.028227 0
0.913408 -0.027866 0
0.922227 -0.027121 0
0.930716 -0.026077 0
0.938669 -0.024801 0
0.945947 -0.023310 0
0.952517 -0.021649 0
0.958475 -0.019963 0
0.963997 -0.018405 0
0.969165 -0.017042 0
0.973901 -0.015794 0
0.978019 -0.014454 0
0.981397 -0.012925 0
0.984216 -0.011310 0
0.986769 -0.009851 0
0.989340 -0.008809 0
0.992077 -0.008201 0
0.994803 -0.007918 0
0.997253 -0.007696 0
0.999139 -0.007213 0
1.000489 -0.006422 0
1.001540 -0.005545 0
1.002452 -0.004766 0
1.003266 -0.004072 0
1.003995 -0.003457 0
1.004644 -0.002920 0
1.005216 -0.002457 0
1.005717 -0.002062 0
1.006152 -0.001726 0
1.006527 -0.001442 0
1.006848 -0.001204 0
1.007121 -0.001005 0
1.007350 -0.000839 0
1.007542 -0.000703 0
1.007700 -0.000594 0
1.007827 -0.000509 0
1.007923 -0.000447 0
1.007987 -0.000407 0
1.008013 -0.000382 0
1.007997 -0.000370 0
1.000000 -0.016404 0
1.001052 -0.054633 0
1.009735 -0.103453 0
1.017473 -0.170080 0
1.061323 -0.248833 0
1.119433 -0.326051 0
1.227267 -0.451756 0
1.517679 -0.471170 0
1.598030 -0.334419 0
1.594687 -0.223259 0
1.595946 -0.141624 0
1.610107 -0.059704 0
1.622417 0.023654 0
1.630527 0.104421 0
1.671586 0.208034 0
1.651225 0.325937 0
1.570650 0.412185 0
1.450694 0.457354 0
1.313602 0.464220 0
1.184856 0.462296 0
1.009580 0.599194 0
0.880891 0.616906 0
0.943150 0.421218 0
0.760324 0.530293 0
0.550919 0.624239 0
0.586688 0.302347 0
0.591886 -0.055807 0
0.537460 -0.301396 0
0.536904 -0.545870 0
0.564150 -0.814876 0
0.564730 -1.020286 0
0.547359 -1.055882 0
0.620797 -0.882327 0
0.754926 -0.591037 0
0.856491 -0.314097 0
0.903710 -0.076978 0
0.937002 0.132379 0
0.979712 0.294389 0
1.026017 0.402454 0
1.055967 0.462110 0
1.060823 0.467700 0
1.046530 0.435382 0
1.033213 0.378077 0
1.020828 0.314004 0
0.994868 0.223911 0
0.970066 0.117301 0
0.963729 0.037220 0
0.943409 0.001634 0
0.924597 0.004903 0
0.912853 0.014130 0
0.908322 0.016749 0
0.908371 0.012930 0
0.908723 0.011481 0
0.902047 0.019139 0
0.882437 0.020452 0
0.865709 0.006891 0
0.858168 -0.008721 0
0.858914 -0.020844 0
0.865286 -0.029049 0
0.874929 -0.034105 0
0.886133 -0.036775 0
0.897779 -0.037715 0
0.909257 -0.037481 0
0.920216 -0.036486 0
0.930359 -0.034945 0
0.939435 -0.032937 0
0.947369 -0.030569 0
0.954391 -0.028083 0
0.960837 -0.025803 0
0.966859 -0.023884 0
0.972317 -0.022151 0
0.976893 -0.020283 0
0.980498 -0.018116 0
0.983444 -0.015850 0
0.986204 -0.013873 0
0.989126 -0.012443 0
0.992251 -0.011617 0
0.995262 -0.011118 0
0.997772 -0.010551 0
0.999610 -0.009666 0
1.000906 -0.008544 0
1.001888 -0.007446 0
1.002761 -0.006455 0
1.003532 -0.005571 0
1.004210 -0.004784 0
1.004810 -0.004087 0
1.005340 -0.003477 0
1.005806 -0.002946 0
1.006214 -0.002488 0
1.006568 -0.002096 0
1.006873 -0.001760 0
1.007135 -0.001475 0
1.007358 -0.001234 0
1.007545 -0.001031 0
1.007700 -0.000862 0
1.007826 -0.000722 0
1.007924 -0.000608 0
1.007996 -0.000516 0
1.008039 -0.000444 0
1.008052 -0.000383 0
1.008033 -0.000352 0
1.000000 -0.016334 0
0.998414 -0.058456 0
1.002600 -0.105282 0
0.996673 -0.189149 0
1.023484 -0.294296 0
1.038595 -0.410139 0
1.197379 -0.697732 0
1.548665 -0.681531 0
1.430922 -0.332802 0
1.297990 -0.184382 0
1.210528 -0.132134 0
1.191498 -0.071906 0
1.220849 0.005556 0
1.245380 0.048054 0
1.454321 0.150299 0
1.528991 0.338394 0
1.543340 0.487707 0
1.510093 0.585192 0
1.420250 0.631661 0
1.280833 0.661594 0
1.109056 0.719724 0
1.092117 0.629462 0
1.033295 0.559395 0
0.712683 0.744895 0
0.642496 0.683131 0
0.642616 0.333914 0
0.557971 0.018201 0
0.510798 -0.295959 0
0.522498 -0.586999 0
0.547192 -0.838046 0
0.539732 -1.024518 0
0.528524 -1.061665 0
0.534476 -0.931634 0
0.589180 -0.692136 0
0.674920 -0.402433 0
0.761244 -0.119031 0
0.835272 0.115046 0
0.901325 0.277944 0
0.943705 0.378606 0
0.972764 0.425714 0
0.989245 0.427201 0
1.006041 0.399196 0
1.033847 0.346647 0
1.056940 0.278768 0
1.073726 0.200320 0
1.051709 0.127979 0
0.999893 0.097600 0
0.930812 0.087033 0
0.871261 0.067778 0
0.825943 0.051906 0
0.792891 0.040955 0
0.768974 0.030936 0
0.753904 0.021456 0
0.751581 0.013500 0
0.766115 0.003561 0
0.785321 -0.010227 0
0.804565 -0.024173 0
0.823292 -0.035597 0
0.841510 -0.043730 0
0.859139 -0.048710 0
0.876092 -0.051026 0
0.892214 -0.051351 0
0.907177 -0.050304 0
0.920557 -0.048222 0
0.932086 -0.045296 0
0.941910 -0.041812 0
0.950566 -0.038266 0
0.958481 -0.035118 0
0.965619 -0.032431 0
0.971638 -0.029885 0
0.976371 -0.027076 0
0.980071 -0.023975 0
0.983267 -0.021006 0
0.986583 -0.018632 0
0.990283 -0.016992 0
0.993745 -0.015898 0
0.996799 -0.014946 0
0.999112 -0.013723 0
1.000721 -0.012267 0
1.001829 -0.010830 0
1.002720 -0.009492 0
1.003494 -0.008278 0
1.004171 -0.007189 0
1.004761 -0.006215 0
1.005277 -0.005351 0
1.005729 -0.004587 0
1.006126 -0.003917 0
1.006474 -0.003332 0
1.006778 -0.002824 0
1.007042 -0.002386 0
1.007271 -0.002010 0
1.007467 -0.001689 0
1.007634 -0.001415 0
1.007774 -0.001182 0
1.007889 -0.000985 0
1.007981 -0.000819 0
1.008050 -0.000680 0
1.008098 -0.000563 0
1.008122 -0.000465 0
1.008123 -0.000376 0
1.008099 -0.000330 0
1.000000 -0.014809 0
0.998881 -0.057221 0
0.990612 -0.101706 0
0.983820 -0.190958 0
0.973002 -0.290750 0
0.945677 -0.499942 0
1.031071 -0.961822 0
0.755457 -0.620966 0
-0.002844 0.000000 0
-0.001724 0.000000 0
0.432056 -0.032266 0
0.372090 -0.070027 0
0.442825 -0.030230 0
0.363910 -0.129052 0
0.814699 -0.075578 0
1.102331 0.236916 0
1.218108 0.431083 0
1.322642 0.580443 0
1.334279 0.693479 0
1.294156 0.773490 0
1.228185 0.787909 0
1.225485 0.692666 0
1.050242 0.800651 0
0.782532 0.921091 0
0.779286 0.694306 0
0.739844 0.386870 0
0.686637 0.076009 0
0.643340 -0.265924 0
0.611699 -0.582265 0
0.599760 -0.832111 0
0.576960 -1.001620 0
0.536415 -1.050627 0
0.523809 -0.942984 0
0.546726 -0.731483 0
0.585574 -0.486162 0
0.648196 -0.237331 0
0.728374 -0.007703 0
0.793899 0.185956 0
0.832799 0.331013 0
0.867579 0.416569 0
0.910929 0.434423 0
0.959644 0.390780 0
0.996065 0.327177 0
1.004755 0.274124 0
0.992474 0.229141 0
0.956417 0.191134 0
0.905801 0.158116 0
0.862575 0.130266 0
0.817209 0.109772 0
0.772963 0.092500 0
0.738256 0.073718 0
0.717106 0.051917 0
0.709909 0.028875 0
0.716036 0.006929 0
0.733774 -0.013288 0
0.757425 -0.031559 0
0.782924 -0.046693 0
0.808313 -0.057789 0
0.832700 -0.064896 0
0.855626 -0.068687 0
0.876691 -0.069849 0
0.895442 -0.068800 0
0.911661 -0.065824 0
0.925736 -0.061395 0
0.938274 -0.056299 0
0.949303 -0.051417 0
0.958708 -0.047140 0
0.966285 -0.043137 0
0.972100 -0.038960 0
0.976726 -0.034636 0
0.981065 -0.030585 0
0.985401 -0.027179 0
0.989432 -0.024627 0
0.993291 -0.022867 0
0.996763 -0.021035 0
0.999395 -0.018960 0
1.001242 -0.016984 0
1.002465 -0.015040 0
1.003388 -0.013269 0
1.004130 -0.011666 0
1.004751 -0.010210 0
1.005276 -0.008897 0
1.005722 -0.007723 0
1.006104 -0.006678 0
1.006434 -0.005752 0
1.006721 -0.004937 0
1.006971 -0.004223 0
1.007191 -0.003599 0
1.007384 -0.003058 0
1.007553 -0.002589 0
1.007699 -0.002186 0
1.007826 -0.001839 0
1.007934 -0.001541 0
1.008025 -0.001287 0
1.008099 -0.001070 0
1.008156 -0.000884 0
1.008197 -0.000726 0
1.008222 -0.000589 0
1.008229 -0.000470 0
1.008218 -0.000360 0
1.008188 -0.000303 0
1.000000 -0.015204 0
1.001931 -0.049053 0
0.972959 -0.090213 0
0.978485 -0.171531 0
0.895020 -0.256146 0
0.906363 -0.468203 0
0.585934 -0.591252 0
0.000000 0.001024 0
-0.616415 0.265052 0
-0.508124 0.000000 0
0.000000 0.000000 0
-0.037309 -0.087720 0
-0.074006 0.013734 0
-0.020354 -0.323820 0
0.022153 -0.588122 0
0.549048 -0.065016 0
0.636390 0.267395 0
0.909531 0.469021 0
1.085190 0.660147 0
1.154724 0.767688 0
1.202586 0.788394 0
1.199055 0.807405 0
0.978079 1.002347 0
0.908511 1.015850 0
0.909559 0.725818 0
0.862794 0.426562 0
0.833615 0.114703 0
0.807935 -0.221023 0
0.770200 -0.543421 0
0.726322 -0.803308 0
0.677554 -0.961174 0
0.609335 -1.008515 0
0.551815 -0.941946 0
0.555904 -0.753902 0
0.584941 -0.503905 0
0.595057 -0.261832 0
0.587981 -0.030658 0
0.589610 0.173517 0
0.631770 0.304925 0
0.717785 0.347583 0
0.810916 0.335135 0
0.868761 0.314060 0
0.883155 0.301535 0
0.881266 0.282359 0
0.875238 0.248658 0
0.860217 0.214651 0
0.830995 0.191441 0
0.787749 0.175625 0
0.741929 0.157390 0
0.705277 0.130859 0
0.683900 0.096812 0
0.678273 0.059283 0
0.686238 0.022526 0
0.705091 -0.010366 0
0.731858 -0.037828 0
0.762666 -0.059376 0
0.794173 -0.075061 0
0.824105 -0.085373 0
0.851319 -0.091043 0
0.875484 -0.092701 0
0.896880 -0.090841 0
0.915385 -0.086321 0
0.930597 -0.080598 0
0.943064 -0.074836 0
0.954068 -0.068864 0
0.963509 -0.062246 0
0.971314 -0.055248 0
0.977352 -0.048510 0
0.981964 -0.042872 0
0.986227 -0.038850 0
0.990849 -0.035752 0
0.995043 -0.032342 0
0.998495 -0.028896 0
1.001136 -0.025964 0
1.002852 -0.023097 0
1.004142 -0.020377 0
1.005033 -0.018016 0
1.005711 -0.015869 0
1.006233 -0.013933 0
1.006623 -0.012195 0
1.006920 -0.010638 0
1.007151 -0.009250 0
1.007335 -0.008018 0
1.007487 -0.006928 0
1.007614 -0.005968 0
1.007726 -0.005125 0
1.007825 -0.004388 0
1.007914 -0.003745 0
1.007996 -0.003187 0
1.008069 -0.002703 0
1.008135 -0.002285 0
1.008194 -0.001924 0
1.008244 -0.001614 0
1.008287 -0.001347 0
1.008320 -0.001117 0
1.008344 -0.000918 0
1.008358 -0.000746 0
1.008361 -0.000595 0
1.008352 -0.000462 0
1.008330 -0.000336 0
1.008295 -0.000271 0
1.000000 -0.016726 0
0.989205 -0.030162 0
0.975515 -0.078252 0
0.949350 -0.113011 0
0.885219 -0.218619 0
0.803070 -0.190848 0
0.490601 -0.126587 0
0.352789 -0.106164 0
0.000000 0.000000 0
0.000000 0.000000 0
0.000000 0.000000 0
0.000000 0.000000 0
-0.086656 -0.046121 0
0.018159 -0.225212 0
-0.297619 -0.644980 0
-0.141890 -0.377320 0
-0.204917 0.070601 0
0.416460 0.131644 0
0.780007 0.448286 0
0.982656 0.656093 0
1.095745 0.743577 0
1.028853 0.917173 0
0.914126 1.091194 0
1.015003 0.989611 0
1.048363 0.740022 0
0.964788 0.462813 0
0.950757 0.130866 0
0.949377 -0.202511 0
0.931013 -0.500653 0
0.879641 -0.739467 0
0.846159 -0.884634 0
0.793288 -0.924890 0
0.699381 -0.889555 0
0.603222 -0.764610 0
0.573376 -0.525316 0
0.590792 -0.240372 0
0.627027 -0.002258 0
0.689879 0.142165 0
0.766093 0.202837 0
0.817061 0.237422 0
0.825092 0.283446 0
0.810035 0.318540 0
0.805502 0.314672 0
0.819714 0.282040 0
0.827948 0.250190 0
0.810841 0.235377 0
0.772358 0.230584 0
0.728495 0.219332 0
0.692525 0.192244 0
0.670656 0.150528 0
0.664117 0.100722 0
0.671705 0.049579 0
0.691123 0.002056 0
0.719785 -0.038691 0
0.754704 -0.070863 0