# vtk DataFile Version 2.0
generated by CFD-lab course output (written by Tobias Neckel) 
ASCII

DATASET STRUCTURED_GRID
DIMENSIONS  101 21 1 
POINTS 2121 float

0.000000 0.000000 0
0.100000 0.000000 0
0.200000 0.000000 0
0.300000 0.000000 0
0.400000 0.000000 0
0.500000 0.000000 0
0.600000 0.000000 0
0.700000 0.000000 0
0.800000 0.000000 0
0.900000 0.000000 0
1.000000 0.000000 0
1.100000 0.000000 0
1.200000 0.000000 0
1.300000 0.000000 0
1.400000 0.000000 0
1.500000 0.000000 0
1.600000 0.000000 0
1.700000 0.000000 0
1.800000 0.000000 0
1.900000 0.000000 0
2.000000 0.000000 0
2.100000 0.000000 0
2.200000 0.000000 0
2.300000 0.000000 0
2.400000 0.000000 0
2.500000 0.000000 0
2.600000 0.000000 0
2.700000 0.000000 0
2.800000 0.000000 0
2.900000 0.000000 0
3.000000 0.000000 0
3.100000 0.000000 0
3.200000 0.000000 0
3.300000 0.000000 0
3.400000 0.000000 0
3.500000 0.000000 0
3.600000 0.000000 0
3.700000 0.000000 0
3.800000 0.000000 0
3.900000 0.000000 0
4.000000 0.000000 0
4.100000 0.000000 0
4.200000 0.000000 0
4.300000 0.000000 0
4.400000 0.000000 0
4.500000 0.000000 0
4.600000 0.000000 0
4.700000 0.000000 0
4.800000 0.000000 0
4.900000 0.000000 0
5.000000 0.000000 0
5.100000 0.000000 0
5.200000 0.000000 0
5.300000 0.000000 0
5.400000 0.000000 0
5.500000 0.000000 0
5.600000 0.000000 0
5.700000 0.000000 0
5.800000 0.000000 0
5.900000 0.000000 0
6.000000 0.000000 0
6.100000 0.000000 0
6.200000 0.000000 0
6.300000 0.000000 0
6.400000 0.000000 0
6.500000 0.000000 0
6.600000 0.000000 0
6.700000 0.000000 0
6.800000 0.000000 0
6.900000 0.000000 0
7.000000 0.000000 0
7.100000 0.000000 0
7.200000 0.000000 0
7.300000 0.000000 0
7.400000 0.000000 0
7.500000 0.000000 0
7.600000 0.000000 0
7.700000 0.000000 0
7.800000 0.000000 0
7.900000 0.000000 0
8.000000 0.000000 0
8.100000 0.000000 0
8.200000 0.000000 0
8.300000 0.000000 0
8.400000 0.000000 0
8.500000 0.000000 0
8.600000 0.000000 0
8.700000 0.000000 0
8.800000 0.000000 0
8.900000 0.000000 0
9.000000 0.000000 0
9.100000 0.000000 0
9.200000 0.000000 0
9.300000 0.000000 0
9.400000 0.000000 0
9.500000 0.000000 0
9.600000 0.000000 0
9.700000 0.000000 0
9.800000 0.000000 0
9.900000 0.000000 0
10.000000 0.000000 0
0.000000 0.100000 0
0.100000 0.100000 0
0.200000 0.100000 0
0.300000 0.100000 0
0.400000 0.100000 0
0.500000 0.100000 0
0.600000 0.100000 0
0.700000 0.100000 0
0.800000 0.100000 0
0.900000 0.100000 0
1.000000 0.100000 0
1.100000 0.100000 0
1.200000 0.100000 0
1.300000 0.100000 0
1.400000 0.100000 0
1.500000 0.100000 0
1.600000 0.100000 0
1.700000 0.100000 0
1.800000 0.100000 0
1.900000 0.100000 0
2.000000 0.100000 0
2.100000 0.100000 0
2.200000 0.100000 0
2.300000 0.100000 0
2.400000 0.100000 0
2.500000 0.100000 0
2.600000 0.100000 0
2.700000 0.100000 0
2.800000 0.100000 0
2.900000 0.100000 0
3.000000 0.100000 0
3.100000 0.100000 0
3.200000 0.100000 0
3.300000 0.100000 0
3.400000 0.100000 0
3.500000 0.100000 0
3.600000 0.100000 0
3.700000 0.100000 0
3.800000 0.100000 0
3.900000 0.100000 0
4.000000 0.100000 0
4.100000 0.100000 0
4.200000 0.100000 0
4.300000 0.100000 0
4.400000 0.100000 0
4.500000 0.100000 0
4.600000 0.100000 0
4.700000 0.100000 0
4.800000 0.100000 0
4.900000 0.100000 0
5.000000 0.100000 0
5.100000 0.100000 0
5.200000 0.100000 0
5.300000 0.100000 0
5.400000 0.100000 0
5.500000 0.100000 0
5.600000 0.100000 0
5.700000 0.100000 0
5.800000 0.100000 0
5.900000 0.100000 0
6.000000 0.100000 0
6.100000 0.100000 0
6.200000 0.100000 0
6.300000 0.100000 0
6.400000 0.100000 0
6.500000 0.100000 0
6.600000 0.100000 0
6.700000 0.100000 0
6.800000 0.100000 0
6.900000 0.100000 0
7.000000 0.100000 0
7.100000 0.100000 0
7.200000 0.100000 0
7.300000 0.100000 0
7.400000 0.100000 0
7.500000 0.100000 0
7.600000 0.100000 0
7.700000 0.100000 0
7.800000 0.100000 0
7.900000 0.100000 0
8.000000 0.100000 0
8.100000 0.100000 0
8.200000 0.100000 0
8.300000 0.100000 0
8.400000 0.100000 0
8.500000 0.100000 0
8.600000 0.100000 0
8.700000 0.100000 0
8.800000 0.100000 0
8.900000 0.100000 0
9.000000 0.100000 0
9.100000 0.100000 0
9.200000 0.100000 0
9.300000 0.100000 0
9.400000 0.100000 0
9.500000 0.100000 0
9.600000 0.100000 0
9.700000 0.100000 0
9.800000 0.100000 0
9.900000 0.100000 0
10.000000 0.100000 0
0.000000 0.200000 0
0.100000 0.200000 0
0.200000 0.200000 0
0.300000 0.200000 0
0.400000 0.200000 0
0.500000 0.200000 0
0.600000 0.200000 0
0.700000 0.200000 0
0.800000 0.200000 0
0.900000 0.200000 0
1.000000 0.200000 0
1.100000 0.200000 0
1.200000 0.200000 0
1.300000 0.200000 0
1.400000 0.200000 0
1.500000 0.200000 0
1.600000 0.200000 0
1.700000 0.200000 0
1.800000 0.200000 0
1.900000 0.200000 0
2.000000 0.200000 0
2.100000 0.200000 0
2.200000 0.200000 0
2.300000 0.200000 0
2.400000 0.200000 0
2.500000 0.200000 0
2.600000 0.200000 0
2.700000 0.200000 0
2.800000 0.200000 0
2.900000 0.200000 0
3.000000 0.200000 0
3.100000 0.200000 0
3.200000 0.200000 0
3.300000 0.200000 0
3.400000 0.200000 0
3.500000 0.200000 0
3.600000 0.200000 0
3.700000 0.200000 0
3.800000 0.200000 0
3.900000 0.200000 0
4.000000 0.200000 0
4.100000 0.200000 0
4.200000 0.200000 0
4.300000 0.200000 0
4.400000 0.200000 0
4.500000 0.200000 0
4.600000 0.200000 0
4.700000 0.200000 0
4.800000 0.200000 0
4.900000 0.200000 0
5.000000 0.200000 0
5.100000 0.200000 0
5.200000 0.200000 0
5.300000 0.200000 0
5.400000 0.200000 0
5.500000 0.200000 0
5.600000 0.200000 0
5.700000 0.200000 0
5.800000 0.200000 0
5.900000 0.200000 0
6.000000 0.200000 0
6.100000 0.200000 0
6.200000 0.200000 0
6.300000 0.200000 0
6.400000 0.200000 0
6.500000 0.200000 0
6.600000 0.200000 0
6.700000 0.200000 0
6.800000 0.200000 0
6.900000 0.200000 0
7.000000 0.200000 0
7.100000 0.200000 0
7.200000 0.200000 0
7.300000 0.200000 0
7.400000 0.200000 0
7.500000 0.200000 0
7.600000 0.200000 0
7.700000 0.200000 0
7.800000 0.200000 0
7.900000 0.200000 0
8.000000 0.200000 0
8.100000 0.200000 0
8.200000 0.200000 0
8.300000 0.200000 0
8.400000 0.200000 0
8.500000 0.200000 0
8.600000 0.200000 0
8.700000 0.200000 0
8.800000 0.200000 0
8.900000 0.200000 0
9.000000 0.200000 0
9.100000 0.200000 0
9.200000 0.200000 0
9.300000 0.200000 0
9.400000 0.200000 0
9.500000 0.200000 0
9.600000 0.200000 0
9.700000 0.200000 0
9.800000 0.200000 0
9.900000 0.200000 0
10.000000 0.200000 0
0.000000 0.300000 0
0.100000 0.300000 0
0.200000 0.300000 0
0.300000 0.300000 0
0.400000 0.300000 0
0.500000 0.300000 0
0.600000 0.300000 0
0.700000 0.300000 0
0.800000 0.300000 0
0.900000 0.300000 0
1.000000 0.300000 0
1.100000 0.300000 0
1.200000 0.300000 0
1.300000 0.300000 0
1.400000 0.300000 0
1.500000 0.300000 0
1.600000 0.300000 0
1.700000 0.300000 0
1.800000 0.300000 0
1.900000 0.300000 0
2.000000 0.300000 0
2.100000 0.300000 0
2.200000 0.300000 0
2.300000 0.300000 0
2.400000 0.300000 0
2.500000 0.300000 0
2.600000 0.300000 0
2.700000 0.300000 0
2.800000 0.300000 0
2.900000 0.300000 0
3.000000 0.300000 0
3.100000 0.300000 0
3.200000 0.300000 0
3.300000 0.300000 0
3.400000 0.300000 0
3.500000 0.300000 0
3.600000 0.300000 0
3.700000 0.300000 0
3.800000 0.300000 0
3.900000 0.300000 0
4.000000 0.300000 0
4.100000 0.300000 0
4.200000 0.300000 0
4.300000 0.300000 0
4.400000 0.300000 0
4.500000 0.300000 0
4.600000 0.300000 0
4.700000 0.300000 0
4.800000 0.300000 0
4.900000 0.300000 0
5.000000 0.300000 0
5.100000 0.300000 0
5.200000 0.300000 0
5.300000 0.300000 0
5.400000 0.300000 0
5.500000 0.300000 0
5.600000 0.300000 0
5.700000 0.300000 0
5.800000 0.300000 0
5.900000 0.300000 0
6.000000 0.300000 0
6.100000 0.300000 0
6.200000 0.300000 0
6.300000 0.300000 0
6.400000 0.300000 0
6.500000 0.300000 0
6.600000 0.300000 0
6.700000 0.300000 0
6.800000 0.300000 0
6.900000 0.300000 0
7.000000 0.300000 0
7.100000 0.300000 0
7.200000 0.300000 0
7.300000 0.300000 0
7.400000 0.300000 0
7.500000 0.300000 0
7.600000 0.300000 0
7.700000 0.300000 0
7.800000 0.300000 0
7.900000 0.300000 0
8.000000 0.300000 0
8.100000 0.300000 0
8.200000 0.300000 0
8.300000 0.300000 0
8.400000 0.300000 0
8.500000 0.300000 0
8.600000 0.300000 0
8.700000 0.300000 0
8.800000 0.300000 0
8.900000 0.300000 0
9.000000 0.300000 0
9.100000 0.300000 0
9.200000 0.300000 0
9.300000 0.300000 0
9.400000 0.300000 0
9.500000 0.300000 0
9.600000 0.300000 0
9.700000 0.300000 0
9.800000 0.300000 0
9.900000 0.300000 0
10.000000 0.300000 0
0.000000 0.400000 0
0.100000 0.400000 0
0.200000 0.400000 0
0.300000 0.400000 0
0.400000 0.400000 0
0.500000 0.400000 0
0.600000 0.400000 0
0.700000 0.400000 0
0.800000 0.400000 0
0.900000 0.400000 0
1.000000 0.400000 0
1.100000 0.400000 0
1.200000 0.400000 0
1.300000 0.400000 0
1.400000 0.400000 0
1.500000 0.400000 0
1.600000 0.400000 0
1.700000 0.400000 0
1.800000 0.400000 0
1.900000 0.400000 0
2.000000 0.400000 0
2.100000 0.400000 0
2.200000 0.400000 0
2.300000 0.400000 0
2.400000 0.400000 0
2.500000 0.400000 0
2.600000 0.400000 0
2.700000 0.400000 0
2.800000 0.400000 0
2.900000 0.400000 0
3.000000 0.400000 0
3.100000 0.400000 0
3.200000 0.400000 0
3.300000 0.400000 0
3.400000 0.400000 0
3.500000 0.400000 0
3.600000 0.400000 0
3.700000 0.400000 0
3.800000 0.400000 0
3.900000 0.400000 0
4.000000 0.400000 0
4.100000 0.400000 0
4.200000 0.400000 0
4.300000 0.400000 0
4.400000 0.400000 0
4.500000 0.400000 0
4.600000 0.400000 0
4.700000 0.400000 0
4.800000 0.400000 0
4.900000 0.400000 0
5.000000 0.400000 0
5.100000 0.400000 0
5.200000 0.400000 0
5.300000 0.400000 0
5.400000 0.400000 0
5.500000 0.400000 0
5.600000 0.400000 0
5.700000 0.400000 0
5.800000 0.400000 0
5.900000 0.400000 0
6.000000 0.400000 0
6.100000 0.400000 0
6.200000 0.400000 0
6.300000 0.400000 0
6.400000 0.400000 0
6.500000 0.400000 0
6.600000 0.400000 0
6.700000 0.400000 0
6.800000 0.400000 0
6.900000 0.400000 0
7.000000 0.400000 0
7.100000 0.400000 0
7.200000 0.400000 0
7.300000 0.400000 0
7.400000 0.400000 0
7.500000 0.400000 0
7.600000 0.400000 0
7.700000 0.400000 0
7.800000 0.400000 0
7.900000 0.400000 0
8.000000 0.400000 0
8.100000 0.400000 0
8.200000 0.400000 0
8.300000 0.400000 0
8.400000 0.400000 0
8.500000 0.400000 0
8.600000 0.400000 0
[...]
POINT_DATA 2121 

VECTORS velocity float
0.500000 0.000000 0
0.000055 0.000000 0
0.000161 0.000000 0
0.000291 0.000000 0
0.000427 0.000000 0
0.000557 0.000000 0
0.000669 0.000000 0
0.000750 0.000000 0
0.000779 0.000000 0
0.000730 0.000000 0
0.000586 0.000000 0
0.000326 0.000000 0
-0.000061 0.000000 0
-0.000582 0.000000 0
-0.001227 0.000000 0
-0.001940 0.000000 0
-0.002607 0.000000 0
-0.003084 0.000000 0
-0.003183 0.000000 0
-0.002710 0.000000 0
-0.001695 0.000000 0
-0.000366 0.000000 0
0.001024 0.000000 0
0.002314 0.000000 0
0.003339 0.000000 0
0.003629 0.000000 0
0.003425 0.000000 0
0.010918 0.000000 0
0.015350 0.000000 0
0.010235 0.000000 0
-0.002516 0.000000 0
0.004585 0.000000 0
0.020016 0.000000 0
0.017085 0.000000 0
0.008491 0.000000 0
0.002210 0.000000 0
-0.002838 0.000000 0
-0.008129 0.000000 0
-0.014728 0.000000 0
-0.021152 0.000000 0
-0.023688 0.000000 0
-0.020075 0.000000 0
-0.013937 0.000000 0
-0.015755 0.000000 0
-0.017199 0.000000 0
-0.017724 0.000000 0
-0.016843 0.000000 0
-0.016006 0.000000 0
-0.015287 0.000000 0
-0.013872 0.000000 0
-0.010653 0.000000 0
-0.005779 0.000000 0
-0.000594 0.000000 0
0.005640 0.000000 0
0.018183 0.000000 0
0.035110 0.000000 0
0.045104 0.000000 0
0.042949 0.000000 0
0.012105 0.000000 0
-0.000907 0.000000 0
-0.003697 0.000000 0
-0.003889 0.000000 0
-0.003344 0.000000 0
-0.000678 0.000000 0
-0.000139 0.000000 0
0.000004 0.000000 0
-0.000040 0.000000 0
-0.000225 0.000000 0
-0.000411 0.000000 0
-0.000549 0.000000 0
-0.000646 0.000000 0
-0.000721 0.000000 0
-0.000788 0.000000 0
-0.000848 0.000000 0
-0.000894 0.000000 0
-0.000919 0.000000 0
-0.000926 0.000000 0
-0.000923 0.000000 0
-0.000919 0.000000 0
-0.000912 0.000000 0
-0.000890 0.000000 0
-0.000848 0.000000 0
-0.000791 0.000000 0
-0.000738 0.000000 0
-0.000700 0.000000 0
-0.000678 0.000000 0
-0.000657 0.000000 0
-0.000625 0.000000 0
-0.000576 0.000000 0
-0.000514 0.000000 0
-0.000453 0.000000 0
-0.000413 0.000000 0
-0.000402 0.000000 0
-0.000417 0.000000 0
-0.000448 0.000000 0
-0.000480 0.000000 0
-0.000501 0.000000 0
-0.000497 0.000000 0
-0.000471 0.000000 0
-0.000435 0.000000 0
-0.000416 0.000000 0
1.000000 -0.003391 0
1.007325 -0.010455 0
1.022215 -0.017939 0
1.044890 -0.025588 0
1.075584 -0.032944 0
1.113930 -0.039040 0
1.158214 -0.042441 0
1.204938 -0.041528 0
1.247696 -0.035981 0
1.281699 -0.027442 0
1.305230 -0.018106 0
1.318910 -0.009694 0
1.324631 -0.003270 0
1.324803 0.000440 0
1.322637 0.000925 0
1.322150 -0.001506 0
1.326410 -0.005260 0
1.335781 -0.007954 0
1.347861 -0.007161 0
1.357397 -0.001247 0
1.357618 0.009494 0
1.343912 0.022846 0
1.315468 0.036327 0
1.273552 0.048285 0
1.220647 0.056578 0
1.160184 0.057508 0
1.093290 0.059587 0
1.013122 0.114222 0
0.926439 0.166631 0
0.904667 0.130154 0
0.863127 0.055997 0
0.661918 0.092560 0
0.381355 0.196623 0
0.169300 0.177219 0
0.079708 0.078369 0
0.060780 -0.003280 0
0.083379 -0.058797 0
0.138661 -0.104030 0
0.219337 -0.154092 0
0.337687 -0.195238 0
0.501108 -0.202685 0
0.689965 -0.167887 0
0.871604 -0.123638 0
1.021730 -0.113323 0
1.141648 -0.120591 0
1.258072 -0.118917 0
1.369675 -0.111069 0
1.470279 -0.101070 0
1.560121 -0.090526 0
1.637187 -0.075022 0
1.695655 -0.049452 0
1.725278 -0.015027 0
1.713014 0.021131 0
1.649084 0.060842 0
1.534049 0.129724 0
1.380838 0.228610 0
1.212094 0.300300 0
1.070105 0.267370 0
0.991836 0.124303 0
0.966302 0.006672 0
0.948795 -0.026317 0
0.916333 -0.031289 0
0.868919 -0.022082 0
0.837090 -0.009230 0
0.829922 -0.003244 0
0.828246 -0.001371 0
0.826996 -0.000945 0
0.827085 -0.001577 0
0.829045 -0.002565 0
0.832277 -0.003369 0
0.836280 -0.003910 0
0.840840 -0.004307 0
0.845841 -0.004664 0
0.851134 -0.004997 0
0.856583 -0.005252 0
0.862156 -0.005373 0
0.867935 -0.005371 0
0.873996 -0.005316 0
0.880255 -0.005265 0
0.886446 -0.005205 0
0.892257 -0.005055 0
0.897537 -0.004741 0
0.902386 -0.004304 0
0.907027 -0.003884 0
0.911619 -0.003595 0
0.916122 -0.003428 0
0.920324 -0.003272 0
0.924004 -0.003020 0
0.927010 -0.002624 0
0.929393 -0.002107 0
0.931356 -0.001585 0
0.933147 -0.001218 0
0.934968 -0.001081 0
0.936897 -0.001163 0
0.938913 -0.001374 0
0.940949 -0.001589 0
0.942839 -0.001696 0
0.944464 -0.001593 0
0.945753 -0.001388 0
0.946691 -0.001082 0
0.947321 -0.000848 0
1.000000 -0.007340 0
1.007382 -0.022237 0
1.022694 -0.037577 0
1.046077 -0.053381 0
1.078520 -0.069053 0
1.120615 -0.082642 0
1.171282 -0.091018 0
1.228115 -0.089491 0
1.278846 -0.076769 0
1.316581 -0.057542 0
1.340487 -0.037217 0
1.352638 -0.019406 0
1.355996 -0.005897 0
1.352738 0.001990 0
1.346258 0.002651 0
1.342970 -0.003774 0
1.348406 -0.013632 0
1.363064 -0.021451 0
1.384122 -0.021616 0
1.404556 -0.009756 0
1.413191 0.013487 0
1.402997 0.042153 0
1.374875 0.070363 0
1.332241 0.094824 0
1.279059 0.113373 0
1.215838 0.127362 0
1.138701 0.147068 0
1.058257 0.166857 0
1.021453 0.108462 0
0.962171 0.063319 0
0.851139 0.242756 0
0.615670 0.481780 0
0.393682 0.492626 0
0.331233 0.301655 0
0.361351 0.108529 0
0.363309 -0.003662 0
0.327674 -0.077872 0
0.324892 -0.135948 0
0.319823 -0.199017 0
0.307426 -0.281762 0
0.338640 -0.352269 0
0.446135 -0.370486 0
0.616701 -0.331756 0
0.804704 -0.270034 0
0.966687 -0.236332 0
1.093224 -0.228018 0
1.194214 -0.212198 0
1.282390 -0.190437 0
1.357261 -0.166899 0
1.416300 -0.135525 0
1.457577 -0.088082 0
1.470973 -0.017350 0
1.451331 0.076203 0
1.405301 0.178973 0
1.317554 0.268254 0
1.216045 0.321964 0
1.149256 0.310741 0
1.143045 0.220267 0
1.149698 0.103812 0
1.130688 0.043049 0
1.103389 0.049977 0
1.058776 0.079885 0
1.007716 0.079251 0
0.963203 0.039005 0
0.920922 0.008852 0
0.888285 0.002934 0
0.868468 0.001169 0
0.861559 -0.002041 0
0.862807 -0.005184 0
0.866916 -0.007228 0
0.871695 -0.008556 0
0.876619 -0.009554 0
0.881728 -0.010287 0
0.887186 -0.010735 0
0.893139 -0.011015 0
0.899655 -0.011345 0
0.906652 -0.011834 0
0.913896 -0.012313 0
0.921087 -0.012444 0
0.927994 -0.011996 0
0.934555 -0.011084 0
0.940874 -0.010123 0
0.947070 -0.009485 0
0.953141 -0.009228 0
0.958913 -0.009089 0
0.964148 -0.008700 0
0.968684 -0.007877 0
0.972508 -0.006681 0
0.975798 -0.005383 0
0.978786 -0.004341 0
0.981679 -0.003749 0
0.984602 -0.003606 0
0.987530 -0.003745 0
0.990389 -0.003941 0
0.993033 -0.004047 0
0.995320 -0.003921 0
0.997135 -0.003511 0
0.998479 -0.002909 0
0.999450 -0.002222 0
1.000061 -0.001563 0
1.000444 -0.001215 0
1.000000 -0.010785 0
1.005677 -0.033163 0
1.020173 -0.056640 0
1.042319 -0.081419 0
1.075138 -0.107487 0
1.121194 -0.131807 0
1.180606 -0.149945 0
1.259673 -0.149096 0
1.324701 -0.124451 0
1.366209 -0.089086 0
1.387607 -0.054164 0
1.394496 -0.025204 0
1.392568 -0.003371 0
1.381781 0.010177 0
1.363894 0.010693 0
1.351576 -0.003654 0
1.357361 -0.025354 0
1.380536 -0.043670 0
1.414035 -0.048652 0
1.449878 -0.030314 0
1.471013 0.011054 0
1.464963 0.061164 0
1.435673 0.107085 0
1.385941 0.144102 0
1.323152 0.172983 0
1.255500 0.197869 0
1.190093 0.217170 0
1.134795 0.231473 0
1.069788 0.262719 0
0.904286 0.300471 0
0.705334 0.402501 0
0.589829 0.550021 0
0.585995 0.481064 0
0.685413 0.209554 0
0.666399 0.046296 0
0.525805 0.030401 0
0.425500 -0.020376 0
0.414769 -0.096175 0
0.438024 -0.136622 0
0.416486 -0.214051 0
0.368287 -0.341390 0
0.362269 -0.445944 0
0.430027 -0.482202 0
0.555276 -0.463305 0
0.711668 -0.409107 0
0.863108 -0.346440 0
0.991158 -0.300231 0
1.083389 -0.264114 0
1.143449 -0.224432 0
1.183399 -0.175334 0
1.209003 -0.104121 0
1.213918 -0.008778 0
1.182621 0.086805 0
1.119308 0.194623 0
1.063447 0.318984 0
1.034979 0.396912 0
1.039900 0.373304 0
1.051196 0.266931 0
1.036203 0.136663 0
0.989205 0.052985 0
0.951276 0.045598 0
0.934974 0.064387 0
0.935947 0.073494 0
0.924601 0.077568 0
0.894500 0.071678 0
0.865066 0.051085 0
0.847669 0.025783 0
0.847721 0.004087 0
0.855508 -0.007919 0
0.861756 -0.012254 0
0.866124 -0.013610 0
0.869906 -0.014337 0
0.874186 -0.015228 0
0.879531 -0.016405 0
0.886067 -0.017718 0
0.893565 -0.018883 0
0.901576 -0.019609 0
0.909618 -0.019749 0
0.917417 -0.019361 0
0.924975 -0.018671 0
0.932448 -0.017932 0
0.939888 -0.017253 0
0.947125 -0.016568 0
0.953831 -0.015726 0
0.959723 -0.014600 0
0.964704 -0.013196 0
0.968926 -0.011630 0
0.972689 -0.010133 0
0.976296 -0.008899 0
0.979892 -0.007986 0
0.983497 -0.007399 0
0.987021 -0.007066 0
0.990342 -0.006866 0
0.993265 -0.006664 0
0.995691 -0.006303 0
0.997598 -0.005689 0
0.999013 -0.004853 0
1.000055 -0.003906 0
1.000846 -0.002969 0
1.001447 -0.002074 0
1.001802 -0.001592 0
1.000000 -0.013030 0
1.000781 -0.042425 0
1.015595 -0.074225 0
1.033534 -0.108352 0
1.064582 -0.147934 0
1.113170 -0.188115 0
1.181943 -0.229502 0
1.315526 -0.233590 0
1.400953 -0.183308 0
1.440173 -0.120451 0
1.452048 -0.065506 0
1.447406 -0.024369 0
1.440189 0.006817 0
1.420627 0.030664 0
1.379007 0.032855 0
1.343633 0.002758 0
1.346962 -0.042593 0
1.379354 -0.078125 0
1.417884 -0.090957 0
1.462484 -0.066733 0
1.504257 -0.001598 0
1.513462 0.077495 0
1.498328 0.149387 0
1.458950 0.207348 0
1.396641 0.243816 0
1.316932 0.260424 0
1.234096 0.267775 0
1.157173 0.287165 0
1.084993 0.338973 0
1.018966 0.427776 0
0.933175 0.557216 0
0.894282 0.601122 0
0.934845 0.397046 0
0.880383 0.221254 0
0.645865 0.268140 0
0.417188 0.237240 0
0.316047 0.033168 0
0.286467 -0.148469 0
0.302088 -0.200730 0
0.310779 -0.212022 0
0.306032 -0.298048 0
0.315967 -0.432222 0
0.368717 -0.524759 0
0.446522 -0.551672 0
0.527987 -0.544161 0
0.626782 -0.507504 0
0.743846 -0.432475 0
0.858091 -0.342725 0
0.939736 -0.266905 0
0.977650 -0.201074 0
0.973464 -0.118598 0
0.936819 0.009035 0
0.876241 0.170818 0
0.806259 0.298151 0
0.780628 0.352587 0
0.814856 0.345514 0
0.877961 0.294527 0
0.922739 0.223968 0
0.932239 0.165806 0
0.903745 0.127979 0
0.876903 0.104211 0
0.873528 0.095217 0
0.883674 0.089628 0
0.898035 0.080455 0
0.915726 0.068390 0
0.930644 0.049768 0
0.934372 0.018517 0
0.918702 -0.009877 0
0.895051 -0.019217 0
0.876967 -0.017841 0
0.866758 -0.016703 0
0.863371 -0.017614 0
0.865112 -0.019909 0
0.870438 -0.022613 0
0.878076 -0.025046 0
0.886997 -0.026852 0
0.896449 -0.027884 0
0.905981 -0.028152 0
0.915362 -0.027798 0
0.924488 -0.027024 0
0.933260 -0.025995 0
0.941538 -0.024797 0
0.949144 -0.023425 0
0.955883 -0.021823 0
0.961685 -0.019960 0
0.966624 -0.017901 0
0.970924 -0.015860 0
0.974881 -0.014049 0
0.978687 -0.012584 0
0.982462 -0.011540 0
0.986232 -0.010875 0
0.989873 -0.010449 0
0.993103 -0.009988 0
0.995844 -0.009288 0
0.997890 -0.008378 0
0.999394 -0.007241 0
1.000510 -0.005966 0
1.001375 -0.004740 0
1.002064 -0.003612 0
1.002577 -0.002518 0
1.002883 -0.001920 0
1.000000 -0.011579 0
0.997966 -0.048774 0
1.009527 -0.089400 0
1.015612 -0.130412 0
1.043178 -0.187129 0
1.085761 -0.249174 0
1.163648 -0.352305 0
1.411326 -0.368110 0
1.489279 -0.249102 0
1.495212 -0.140183 0
1.483341 -0.061399 0
1.451702 -0.013347 0
1.448680 0.023407 0
1.439834 0.071358 0
1.341862 0.087686 0
1.250340 0.028391 0
1.241450 -0.061075 0
1.268032 -0.114592 0
1.270366 -0.131782 0
1.291015 -0.116686 0
1.363068 -0.039922 0
1.394811 0.067094 0
1.419171 0.161598 0
1.422479 0.245791 0
1.409281 0.315003 0
1.367037 0.360416 0
1.297703 0.376932 0
1.210547 0.380578 0
1.126217 0.400929 0
1.066166 0.452292 0
1.046657 0.527189 0
1.082560 0.548354 0
1.069253 0.494967 0
0.856980 0.498537 0
0.656381 0.509494 0
0.609141 0.360223 0
0.650790 0.110349 0
0.566037 -0.082213 0
0.347367 -0.160930 0
0.212287 -0.217992 0
0.199849 -0.346575 0
0.243345 -0.508625 0
0.317003 -0.612753 0
0.416319 -0.622572 0
0.505106 -0.589363 0
0.557787 -0.562295 0
0.585945 -0.531537 0
0.627103 -0.459999 0
0.681989 -0.343987 0
0.718458 -0.209059 0
0.716837 -0.063287 0
0.686389 0.088448 0
0.663879 0.217369 0
0.676360 0.290239 0
0.707262 0.310390 0
0.744417 0.299583 0
0.778543 0.265424 0
0.806921 0.212657 0
0.827168 0.155661 0
0.849527 0.108325 0
0.869038 0.075819 0
0.888293 0.057619 0
0.906182 0.048991 0
0.919350 0.045519 0
0.925549 0.039072 0
0.927279 0.032442 0
0.919238 0.037728 0
0.895125 0.043412 0
0.867186 0.033819 0
0.848406 0.016041 0
0.839960 -0.000011 0
0.839743 -0.012688 0
0.845313 -0.022293 0
0.854626 -0.029366 0
0.866051 -0.034275 0
0.878361 -0.037253 0
0.890728 -0.038591 0
0.902731 -0.038660 0
0.914241 -0.037865 0
0.925188 -0.036566 0
0.935411 -0.034980 0
0.944667 -0.033135 0
0.952688 -0.030911 0
0.959384 -0.028264 0
0.964836 -0.025339 0
0.969456 -0.022432 0
0.973740 -0.019885 0
0.978003 -0.017894 0
0.982337 -0.016478 0
0.986663 -0.015529 0
0.990793 -0.014808 0
0.994286 -0.013935 0
0.996937 -0.012836 0
0.998919 -0.011448 0
1.000348 -0.009852 0
1.001393 -0.008307 0
1.002251 -0.006832 0
1.002973 -0.005457 0
1.003551 -0.004168 0
1.003972 -0.002892 0
1.004220 -0.002193 0
1.000000 -0.011008 0
0.999585 -0.051968 0
1.000459 -0.091879 0
0.995718 -0.142010 0
1.014868 -0.218088 0
1.021803 -0.308590 0
1.117265 -0.555072 0
1.445726 -0.559226 0
1.379906 -0.267196 0
1.286861 -0.114514 0
1.243699 -0.021998 0
1.224877 0.010290 0
1.104827 0.018683 0
1.255211 0.137481 0
1.251765 0.222348 0
0.972203 0.103170 0
0.779137 -0.060284 0
0.775692 -0.107042 0
0.584465 -0.113940 0
0.567554 -0.159435 0
0.726386 -0.105393 0
0.782014 0.021392 0
1.005818 0.121721 0
1.153585 0.217239 0
1.223139 0.299260 0
1.251933 0.372005 0
1.266905 0.424267 0
1.249581 0.458653 0
1.206141 0.483357 0
1.160083 0.507338 0
1.133454 0.540825 0
1.132187 0.578530 0
1.090927 0.622630 0
1.009157 0.634130 0
0.995489 0.515982 0
1.022553 0.242834 0
1.006019 0.076276 0
0.823376 0.154958 0
0.577325 0.153024 0
0.438750 -0.064500 0
0.411804 -0.329102 0
0.421816 -0.549372 0
0.425281 -0.697730 0
0.448291 -0.739771 0
0.511059 -0.685624 0
0.578166 -0.588339 0
0.608289 -0.501788 0
0.595492 -0.438765 0
0.573209 -0.358256 0
0.561661 -0.235918 0
0.561393 -0.086525 0
0.576420 0.061997 0
0.610708 0.180850 0
0.654417 0.254772 0
0.693472 0.284533 0
0.732218 0.274236 0
0.777247 0.232026 0
0.824388 0.175347 0
0.862507 0.123204 0
0.884765 0.086112 0
0.888068 0.065449 0
0.875462 0.058077 0
0.853125 0.058574 0
0.827660 0.061092 0
0.804493 0.060464 0
0.782173 0.056081 0
0.766926 0.050675 0
0.766883 0.042178 0
0.775821 0.027506 0
0.786143 0.009389 0
0.797492 -0.008037 0
0.810350 -0.022965 0
0.824786 -0.034789 0
0.840412 -0.043348 0
0.856601 -0.048778 0
0.872774 -0.051526 0
0.888528 -0.052253 0
0.903594 -0.051663 0
0.917726 -0.050252 0
0.930476 -0.048191 0
0.941452 -0.045472 0
0.950530 -0.042072 0
0.957879 -0.038140 0
0.963901 -0.033969 0
0.969067 -0.030029 0
0.973999 -0.026803 0
0.979127 -0.024405 0
0.984415 -0.022644 0
0.989315 -0.021242 0
0.993370 -0.019993 0
0.996682 -0.018497 0
0.998991 -0.016591 0
1.000657 -0.014619 0
1.001821 -0.012697 0
1.002788 -0.010851 0
1.003589 -0.009143 0
1.004271 -0.007543 0
1.004833 -0.006037 0
1.005273 -0.004610 0
1.005590 -0.003185 0
1.005770 -0.002404 0
1.000000 -0.011178 0
0.999680 -0.049251 0
0.991583 -0.085540 0
0.976778 -0.144828 0
0.982317 -0.213221 0
0.930694 -0.351577 0
1.017159 -0.776234 0
0.710107 -0.540516 0
0.001408 0.000000 0
0.001405 0.000000 0
0.504062 0.004562 0
0.516486 0.125525 0
0.561159 -0.006929 0
0.551275 -0.075582 0
0.367553 0.370694 0
0.372926 0.501018 0
0.047586 0.135434 0
-0.170362 0.080080 0
-0.213818 0.076356 0
-0.227013 -0.258607 0
-0.285927 -0.254382 0
-0.061291 -0.212336 0
0.343875 -0.209971 0
0.657349 0.028471 0
0.886577 0.216656 0
1.033367 0.316652 0
1.106820 0.379286 0
1.153565 0.441345 0
1.186388 0.490429 0
1.202654 0.524982 0
1.209250 0.555089 0
1.217542 0.590884 0
1.228190 0.617999 0
1.261664 0.593979 0
1.283836 0.496102 0
1.214906 0.349695 0
0.939248 0.309530 0
0.708043 0.346485 0
0.691882 0.223700 0
0.732925 -0.052467 0
0.776078 -0.329637 0
0.807374 -0.522098 0
0.786988 -0.639224 0
0.711675 -0.708346 0
0.643521 -0.719235 0
0.608049 -0.659521 0
0.605818 -0.548860 0
0.603692 -0.424916 0
0.583197 -0.310152 0
0.560278 -0.197239 0
0.552740 -0.078043 0
0.569883 0.039137 0
0.609750 0.139376 0
0.662691 0.207478 0
0.723874 0.232592 0
0.792381 0.215812 0
0.859636 0.173258 0
0.910694 0.127400 0
0.933176 0.095288 0
0.924923 0.082767 0
0.893143 0.085125 0
0.849969 0.092566 0
0.806854 0.096796 0
0.771305 0.094154 0
0.746479 0.084562 0
0.731869 0.070013 0
0.727663 0.053021 0
0.734170 0.034519 0
0.748107 0.014563 0
0.765466 -0.005627 0
0.784243 -0.024215 0
0.803342 -0.039979 0
0.822239 -0.052352 0
0.840977 -0.061179 0
0.859880 -0.066633 0
0.879053 -0.069178 0
0.897925 -0.069409 0
0.915500 -0.067855 0
0.930660 -0.064743 0
0.942573 -0.060289 0
0.951483 -0.055032 0
0.958791 -0.049560 0
0.965657 -0.044280 0
0.972521 -0.039449 0
0.978904 -0.035435 0
0.984524 -0.032490 0
0.989639 -0.030299 0
0.994230 -0.028080 0
0.997675 -0.025431 0
1.000137 -0.022893 0
1.001807 -0.020427 0
1.003022 -0.017909 0
1.004007 -0.015663 0
1.004801 -0.013577 0
1.005487 -0.011618 0
1.006060 -0.009788 0
1.006527 -0.008074 0
1.006899 -0.006458 0
1.007181 -0.004923 0
1.007377 -0.003387 0
1.007483 -0.002544 0
1.000000 -0.010703 0
1.002410 -0.043570 0
0.975545 -0.068985 0
0.974279 -0.132751 0
0.913504 -0.172011 0
0.886810 -0.343439 0
0.729774 -0.424731 0
0.000000 -0.002029 0
-0.613191 0.154641 0
-0.531744 0.000000 0
0.000000 0.000000 0
0.005920 -0.045450 0
0.124389 -0.016108 0
-0.020239 0.331086 0
0.341565 0.400696 0
0.073065 0.423137 0
-0.289585 0.483003 0
-0.812557 0.154362 0
-0.702936 -0.057288 0
-0.648610 -0.087326 0
-0.735818 -0.271115 0
-0.315266 -0.608408 0
-0.180239 -0.596918 0
0.138337 -0.325462 0
0.496964 -0.076756 0
0.778226 0.151764 0
0.951676 0.304072 0
1.043477 0.379088 0
1.109571 0.434270 0
1.171426 0.484479 0
1.217492 0.525940 0
1.251751 0.559593 0
1.281598 0.578511 0
1.299277 0.578487 0
1.271480 0.562744 0
1.177471 0.587425 0
1.010088 0.583143 0
0.957609 0.402328 0
1.022062 0.128146 0
1.077418 -0.148692 0
1.078016 -0.403548 0
1.061902 -0.560279 0
1.035283 -0.602027 0
0.966573 -0.596300 0
0.863624 -0.581995 0
0.772181 -0.550633 0
0.701532 -0.497427 0
0.649853 -0.416140 0
0.613834 -0.314838 0
0.594298 -0.205457 0
0.596714 -0.096126 0
0.622167 0.004990 0
0.667994 0.088045 0
0.730214 0.140651 0
0.802545 0.154847 0
0.873026 0.138478 0
0.925024 0.113717 0
0.946016 0.101810 0
0.933047 0.108978 0
0.895117 0.126148 0
0.846769 0.140406 0
0.800623 0.144369 0
0.763683 0.137242 0
0.738059 0.121470 0
0.723169 0.099902 0
0.717531 0.074900 0
0.720181 0.048378 0
0.730420 0.021737 0
0.746692 -0.003788 0
0.767074 -0.026744 0
0.790081 -0.045910 0
0.814323 -0.060958 0
0.838600 -0.072422 0
0.861969 -0.080986 0
0.883767 -0.086850 0
0.903890 -0.089568 0
0.922256 -0.088697 0
0.938567 -0.084395 0
0.952400 -0.077322 0
0.962697 -0.069012 0
0.970231 -0.061688 0
0.977479 -0.056243 0
0.984152 -0.051867 0
0.989832 -0.047214 0
0.994556 -0.042030 0
0.998351 -0.037536 0
1.001162 -0.034109 0
1.003080 -0.030677 0
1.004429 -0.027147 0
1.005549 -0.024123 0
1.006300 -0.021379 0
1.007007 -0.018789 0
1.007595 -0.016396 0
1.008059 -0.014175 0
1.008426 -0.012107 0
1.008710 -0.010181 0
1.008923 -0.008381 0
1.009077 -0.006689 0
1.009181 -0.005086 0
1.009243 -0.003485 0
1.009270 -0.002608 0
1.000000 -0.013603 0
0.998123 -0.024815 0
0.974228 -0.057418 0
0.962006 -0.082796 0
0.871786 -0.125759 0
0.843240 -0.167854 0
0.509754 0.023262 0
0.355758 0.101948 0
0.000000 0.000000 0
0.000000 0.000000 0
0.000000 0.000000 0
0.000000 0.000000 0
-0.047943 0.016736 0
-0.021298 -0.292759 0
0.045095 0.277389 0
-0.153434 1.132167 0
-0.340289 1.021056 0
-0.444823 0.493431 0
-0.652253 -0.087591 0
-0.519367 -0.225724 0
-0.245128 -0.587726 0
-0.136318 -0.767914 0
-0.177923 -0.663573 0
-0.054806 -0.648731 0
0.202680 -0.423232 0
0.504334 -0.138058 0
0.779952 0.114038 0
0.956862 0.283452 0
1.043608 0.362483 0
1.121634 0.417064 0
1.191632 0.474766 0
1.249478 0.526782 0
1.293059 0.570476 0
1.318193 0.604100 0
1.329394 0.617911 0
1.336359 0.611091 0
1.391508 0.529396 0
1.432073 0.334514 0
1.384313 0.103894 0
1.295181 -0.108417 0
1.168538 -0.314117 0
1.016188 -0.479361 0
0.925524 -0.543890 0
0.886109 -0.536684 0
0.839809 -0.524839 0
0.792408 -0.497426 0
0.763257 -0.426528 0
0.748887 -0.337213 0
0.740536 -0.254593 0
0.736539 -0.180115 0
0.742280 -0.105909 0
0.761973 -0.032139 0
0.794403 0.031334 0
0.834099 0.072931 0
0.873638 0.089783 0
0.904671 0.093336 0