# vtk DataFile Version 2.0
generated by CFD-lab course output (written by Tobias Neckel) 
ASCII

DATASET STRUCTURED_GRID
DIMENSIONS  101 21 1 
POINTS 2121 float

0.000000 0.000000 0
0.100000 0.000000 0
0.200000 0.000000 0
0.300000 0.000000 0
0.400000 0.000000 0
0.500000 0.000000 0
0.600000 0.000000 0
0.700000 0.000000 0
0.800000 0.000000 0
0.900000 0.000000 0
1.000000 0.000000 0
1.100000 0.000000 0
1.200000 0.000000 0
1.300000 0.000000 0
1.400000 0.000000 0
1.500000 0.000000 0
1.600000 0.000000 0
1.700000 0.000000 0
1.800000 0.000000 0
1.900000 0.000000 0
2.000000 0.000000 0
2.100000 0.000000 0
2.200000 0.000000 0
2.300000 0.000000 0
2.400000 0.000000 0
2.500000 0.000000 0
2.600000 0.000000 0
2.700000 0.000000 0
2.800000 0.000000 0
2.900000 0.000000 0
3.000000 0.000000 0
3.100000 0.000000 0
3.200000 0.000000 0
3.300000 0.000000 0
3.400000 0.000000 0
3.500000 0.000000 0
3.600000 0.000000 0
3.700000 0.000000 0
3.800000 0.000000 0
3.900000 0.000000 0
4.000000 0.000000 0
4.100000 0.000000 0
4.200000 0.000000 0
4.300000 0.000000 0
4.400000 0.000000 0
4.500000 0.000000 0
4.600000 0.000000 0
4.700000 0.000000 0
4.800000 0.000000 0
4.900000 0.000000 0
5.000000 0.000000 0
5.100000 0.000000 0
5.200000 0.000000 0
5.300000 0.000000 0
5.400000 0.000000 0
5.500000 0.000000 0
5.600000 0.000000 0
5.700000 0.000000 0
5.800000 0.000000 0
5.900000 0.000000 0
6.000000 0.000000 0
6.100000 0.000000 0
6.200000 0.000000 0
6.300000 0.000000 0
6.400000 0.000000 0
6.500000 0.000000 0
6.600000 0.000000 0
6.700000 0.000000 0
6.800000 0.000000 0
6.900000 0.000000 0
7.000000 0.000000 0
7.100000 0.000000 0
7.200000 0.000000 0
7.300000 0.000000 0
7.400000 0.000000 0
7.500000 0.000000 0
7.600000 0.000000 0
7.700000 0.000000 0
7.800000 0.000000 0
7.900000 0.000000 0
8.000000 0.000000 0
8.100000 0.000000 0
8.200000 0.000000 0
8.300000 0.000000 0
8.400000 0.000000 0
8.500000 0.000000 0
8.600000 0.000000 0
8.700000 0.000000 0
8.800000 0.000000 0
8.900000 0.000000 0
9.000000 0.000000 0
9.100000 0.000000 0
9.200000 0.000000 0
9.300000 0.000000 0
9.400000 0.000000 0
9.500000 0.000000 0
9.600000 0.000000 0
9.700000 0.000000 0
9.800000 0.000000 0
9.900000 0.000000 0
10.000000 0.000000 0
0.000000 0.100000 0
0.100000 0.100000 0
0.200000 0.100000 0
0.300000 0.100000 0
0.400000 0.100000 0
0.500000 0.100000 0
0.600000 0.100000 0
0.700000 0.100000 0
0.800000 0.100000 0
0.900000 0.100000 0
1.000000 0.100000 0
1.100000 0.100000 0
1.200000 0.100000 0
1.300000 0.100000 0
1.400000 0.100000 0
1.500000 0.100000 0
1.600000 0.100000 0
1.700000 0.100000 0
1.800000 0.100000 0
1.900000 0.100000 0
2.000000 0.100000 0
2.100000 0.100000 0
2.200000 0.100000 0
2.300000 0.100000 0
2.400000 0.100000 0
2.500000 0.100000 0
2.600000 0.100000 0
2.700000 0.100000 0
2.800000 0.100000 0
2.900000 0.100000 0
3.000000 0.100000 0
3.100000 0.100000 0
3.200000 0.100000 0
3.300000 0.100000 0
3.400000 0.100000 0
3.500000 0.100000 0
3.600000 0.100000 0
3.700000 0.100000 0
3.800000 0.100000 0
3.900000 0.100000 0
4.000000 0.100000 0
4.100000 0.100000 0
4.200000 0.100000 0
4.300000 0.100000 0
4.400000 0.100000 0
4.500000 0.100000 0
4.600000 0.100000 0
4.700000 0.100000 0
4.800000 0.100000 0
4.900000 0.100000 0
5.000000 0.100000 0
5.100000 0.100000 0
5.200000 0.100000 0
5.300000 0.100000 0
5.400000 0.100000 0
5.500000 0.100000 0
5.600000 0.100000 0
5.700000 0.100000 0
5.800000 0.100000 0
5.900000 0.100000 0
6.000000 0.100000 0
6.100000 0.100000 0
6.200000 0.100000 0
6.300000 0.100000 0
6.400000 0.100000 0
6.500000 0.100000 0
6.600000 0.100000 0
6.700000 0.100000 0
6.800000 0.100000 0
6.900000 0.100000 0
7.000000 0.100000 0
7.100000 0.100000 0
7.200000 0.100000 0
7.300000 0.100000 0
7.400000 0.100000 0
7.500000 0.100000 0
7.600000 0.100000 0
7.700000 0.100000 0
7.800000 0.100000 0
7.900000 0.100000 0
8.000000 0.100000 0
8.100000 0.100000 0
8.200000 0.100000 0
8.300000 0.100000 0
8.400000 0.100000 0
8.500000 0.100000 0
8.600000 0.100000 0
8.700000 0.100000 0
8.800000 0.100000 0
8.900000 0.100000 0
9.000000 0.100000 0
9.100000 0.100000 0
9.200000 0.100000 0
9.300000 0.100000 0
9.400000 0.100000 0
9.500000 0.100000 0
9.600000 0.100000 0
9.700000 0.100000 0
9.800000 0.100000 0
9.900000 0.100000 0
10.000000 0.100000 0
0.000000 0.200000 0
0.100000 0.200000 0
0.200000 0.200000 0
0.300000 0.200000 0
0.400000 0.200000 0
0.500000 0.200000 0
0.600000 0.200000 0
0.700000 0.200000 0
0.800000 0.200000 0
0.900000 0.200000 0
1.000000 0.200000 0
1.100000 0.200000 0
1.200000 0.200000 0
1.300000 0.200000 0
1.400000 0.200000 0
1.500000 0.200000 0
1.600000 0.200000 0
1.700000 0.200000 0
1.800000 0.200000 0
1.900000 0.200000 0
2.000000 0.200000 0
2.100000 0.200000 0
2.200000 0.200000 0
2.300000 0.200000 0
2.400000 0.200000 0
2.500000 0.200000 0
2.600000 0.200000 0
2.700000 0.200000 0
2.800000 0.200000 0
2.900000 0.200000 0
3.000000 0.200000 0
3.100000 0.200000 0
3.200000 0.200000 0
3.300000 0.200000 0
3.400000 0.200000 0
3.500000 0.200000 0
3.600000 0.200000 0
3.700000 0.200000 0
3.800000 0.200000 0
3.900000 0.200000 0
4.000000 0.200000 0
4.100000 0.200000 0
4.200000 0.200000 0
4.300000 0.200000 0
4.400000 0.200000 0
4.500000 0.200000 0
4.600000 0.200000 0
4.700000 0.200000 0
4.800000 0.200000 0
4.900000 0.200000 0
5.000000 0.200000 0
5.100000 0.200000 0
5.200000 0.200000 0
5.300000 0.200000 0
5.400000 0.200000 0
5.500000 0.200000 0
5.600000 0.200000 0
5.700000 0.200000 0
5.800000 0.200000 0
5.900000 0.200000 0
6.000000 0.200000 0
6.100000 0.200000 0
6.200000 0.200000 0
6.300000 0.200000 0
6.400000 0.200000 0
6.500000 0.200000 0
6.600000 0.200000 0
6.700000 0.200000 0
6.800000 0.200000 0
6.900000 0.200000 0
7.000000 0.200000 0
7.100000 0.200000 0
7.200000 0.200000 0
7.300000 0.200000 0
7.400000 0.200000 0
7.500000 0.200000 0
7.600000 0.200000 0
7.700000 0.200000 0
7.800000 0.200000 0
7.900000 0.200000 0
8.000000 0.200000 0
8.100000 0.200000 0
8.200000 0.200000 0
8.300000 0.200000 0
8.400000 0.200000 0
8.500000 0.200000 0
8.600000 0.200000 0
8.700000 0.200000 0
8.800000 0.200000 0
8.900000 0.200000 0
9.000000 0.200000 0
9.100000 0.200000 0
9.200000 0.200000 0
9.300000 0.200000 0
9.400000 0.200000 0
9.500000 0.200000 0
9.600000 0.200000 0
9.700000 0.200000 0
9.800000 0.200000 0
9.900000 0.200000 0
10.000000 0.200000 0
0.000000 0.300000 0
0.100000 0.300000 0
0.200000 0.300000 0
0.300000 0.300000 0
0.400000 0.300000 0
0.500000 0.300000 0
0.600000 0.300000 0
0.700000 0.300000 0
0.800000 0.300000 0
0.900000 0.300000 0
1.000000 0.300000 0
1.100000 0.300000 0
1.200000 0.300000 0
1.300000 0.300000 0
1.400000 0.300000 0
1.500000 0.300000 0
1.600000 0.300000 0
1.700000 0.300000 0
1.800000 0.300000 0
1.900000 0.300000 0
2.000000 0.300000 0
2.100000 0.300000 0
2.200000 0.300000 0
2.300000 0.300000 0
2.400000 0.300000 0
2.500000 0.300000 0
2.600000 0.300000 0
2.700000 0.300000 0
2.800000 0.300000 0
2.900000 0.300000 0
3.000000 0.300000 0
3.100000 0.300000 0
3.200000 0.300000 0
3.300000 0.300000 0
3.400000 0.300000 0
3.500000 0.300000 0
3.600000 0.300000 0
3.700000 0.300000 0
3.800000 0.300000 0
3.900000 0.300000 0
4.000000 0.300000 0
4.100000 0.300000 0
4.200000 0.300000 0
4.300000 0.300000 0
4.400000 0.300000 0
4.500000 0.300000 0
4.600000 0.300000 0
4.700000 0.300000 0
4.800000 0.300000 0
4.900000 0.300000 0
5.000000 0.300000 0
5.100000 0.300000 0
5.200000 0.300000 0
5.300000 0.300000 0
5.400000 0.300000 0
5.500000 0.300000 0
5.600000 0.300000 0
5.700000 0.300000 0
5.800000 0.300000 0
5.900000 0.300000 0
6.000000 0.300000 0
6.100000 0.300000 0
6.200000 0.300000 0
6.300000 0.300000 0
6.400000 0.300000 0
6.500000 0.300000 0
6.600000 0.300000 0
6.700000 0.300000 0
6.800000 0.300000 0
6.900000 0.300000 0
7.000000 0.300000 0
7.100000 0.300000 0
7.200000 0.300000 0
7.300000 0.300000 0
7.400000 0.300000 0
7.500000 0.300000 0
7.600000 0.300000 0
7.700000 0.300000 0
7.800000 0.300000 0
7.900000 0.300000 0
8.000000 0.300000 0
8.100000 0.300000 0
8.200000 0.300000 0
8.300000 0.300000 0
8.400000 0.300000 0
8.500000 0.300000 0
8.600000 0.300000 0
8.700000 0.300000 0
8.800000 0.300000 0
8.900000 0.300000 0
9.000000 0.300000 0
9.100000 0.300000 0
9.200000 0.300000 0
9.300000 0.300000 0
9.400000 0.300000 0
9.500000 0.300000 0
9.600000 0.300000 0
9.700000 0.300000 0
9.800000 0.300000 0
9.900000 0.300000 0
10.000000 0.300000 0
0.000000 0.400000 0
0.100000 0.400000 0
0.200000 0.400000 0
0.300000 0.400000 0
0.400000 0.400000 0
0.500000 0.400000 0
0.600000 0.400000 0
0.700000 0.400000 0
0.800000 0.400000 0
0.900000 0.400000 0
1.000000 0.400000 0
1.100000 0.400000 0
1.200000 0.400000 0
1.300000 0.400000 0
1.400000 0.400000 0
1.500000 0.400000 0
1.600000 0.400000 0
1.700000 0.400000 0
1.800000 0.400000 0
1.900000 0.400000 0
2.000000 0.400000 0
2.100000 0.400000 0
2.200000 0.400000 0
2.300000 0.400000 0
2.400000 0.400000 0
2.500000 0.400000 0
2.600000 0.400000 0
2.700000 0.400000 0
2.800000 0.400000 0
2.900000 0.400000 0
3.000000 0.400000 0
3.100000 0.400000 0
3.200000 0.400000 0
3.300000 0.400000 0
3.400000 0.400000 0
3.500000 0.400000 0
3.600000 0.400000 0
3.700000 0.400000 0
3.800000 0.400000 0
3.900000 0.400000 0
4.000000 0.400000 0
4.100000 0.400000 0
4.200000 0.400000 0
4.300000 0.400000 0
4.400000 0.400000 0
4.500000 0.400000 0
4.600000 0.400000 0
4.700000 0.400000 0
4.800000 0.400000 0
4.900000 0.400000 0
5.000000 0.400000 0
5.100000 0.400000 0
5.200000 0.400000 0
5.300000 0.400000 0
5.400000 0.400000 0
5.500000 0.400000 0
5.600000 0.400000 0
5.700000 0.400000 0
5.800000 0.400000 0
5.900000 0.400000 0
6.000000 0.400000 0
6.100000 0.400000 0
6.200000 0.400000 0
6.300000 0.400000 0
6.400000 0.400000 0
6.500000 0.400000 0
6.600000 0.400000 0
6.700000 0.400000 0
6.800000 0.400000 0
6.900000 0.400000 0
7.000000 0.400000 0
7.100000 0.400000 0
7.200000 0.400000 0
7.300000 0.400000 0
7.400000 0.400000 0
7.500000 0.400000 0
7.600000 0.400000 0
7.700000 0.400000 0
7.800000 0.400000 0
7.900000 0.400000 0
8.000000 0.400000 0
8.100000 0.400000 0
8.200000 0.400000 0
8.300000 0.400000 0
8.400000 0.400000 0
8.500000 0.400000 0
8.600000 0.400000 0
[...]
POINT_DATA 2121 

VECTORS velocity float
0.500000 0.000000 0
0.000033 0.000000 0
0.000115 0.000000 0
0.000267 0.000000 0
0.000481 0.000000 0
0.000738 0.000000 0
0.001021 0.000000 0
0.001311 0.000000 0
0.001593 0.000000 0
0.001814 0.000000 0
0.001922 0.000000 0
0.001881 0.000000 0
0.001677 0.000000 0
0.001338 0.000000 0
0.000887 0.000000 0
0.000309 0.000000 0
-0.000447 0.000000 0
-0.001407 0.000000 0
-0.002502 0.000000 0
-0.003514 0.000000 0
-0.004134 0.000000 0
-0.004233 0.000000 0
-0.003789 0.000000 0
-0.002848 0.000000 0
-0.001546 0.000000 0
-0.000091 0.000000 0
0.001308 0.000000 0
0.002454 0.000000 0
0.002883 0.000000 0
0.002283 0.000000 0
0.006464 0.000000 0
0.017211 0.000000 0
0.016675 0.000000 0
0.007057 0.000000 0
-0.007214 0.000000 0
0.002852 0.000000 0
0.013932 0.000000 0
0.010030 0.000000 0
0.005212 0.000000 0
0.001730 0.000000 0
-0.001528 0.000000 0
-0.005251 0.000000 0
-0.009607 0.000000 0
-0.014208 0.000000 0
-0.018050 0.000000 0
-0.019323 0.000000 0
-0.016910 0.000000 0
-0.012609 0.000000 0
-0.013512 0.000000 0
-0.014316 0.000000 0
-0.014730 0.000000 0
-0.014263 0.000000 0
-0.013359 0.000000 0
-0.011849 0.000000 0
-0.010099 0.000000 0
-0.007425 0.000000 0
-0.003873 0.000000 0
-0.000844 0.000000 0
0.000450 0.000000 0
0.004227 0.000000 0
0.016854 0.000000 0
0.033669 0.000000 0
0.045141 0.000000 0
0.023116 0.000000 0
0.004066 0.000000 0
-0.002187 0.000000 0
-0.003694 0.000000 0
-0.003756 0.000000 0
-0.001446 0.000000 0
-0.000424 0.000000 0
-0.000029 0.000000 0
0.000029 0.000000 0
-0.000092 0.000000 0
-0.000248 0.000000 0
-0.000382 0.000000 0
-0.000494 0.000000 0
-0.000594 0.000000 0
-0.000683 0.000000 0
-0.000757 0.000000 0
-0.000809 0.000000 0
-0.000844 0.000000 0
-0.000870 0.000000 0
-0.000891 0.000000 0
-0.000904 0.000000 0
-0.000898 0.000000 0
-0.000870 0.000000 0
-0.000827 0.000000 0
-0.000784 0.000000 0
-0.000748 0.000000 0
-0.000723 0.000000 0
-0.000703 0.000000 0
-0.000675 0.000000 0
-0.000634 0.000000 0
-0.000580 0.000000 0
-0.000528 0.000000 0
-0.000490 0.000000 0
-0.000479 0.000000 0
-0.000493 0.000000 0
-0.000526 0.000000 0
-0.000578 0.000000 0
-0.000580 0.000000 0
1.000000 -0.004599 0
1.009838 -0.014077 0
1.029618 -0.023843 0
1.059384 -0.033386 0
1.098828 -0.042072 0
1.147012 -0.048815 0
1.201516 -0.052027 0
1.258143 -0.049688 0
1.308653 -0.041136 0
1.346304 -0.028313 0
1.368493 -0.013988 0
1.375519 -0.000257 0
1.369201 0.011723 0
1.351918 0.021488 0
1.325821 0.028661 0
1.293378 0.032330 0
1.258743 0.031272 0
1.227773 0.024950 0
1.206571 0.014406 0
1.199174 0.002437 0
1.205244 -0.007417 0
1.220200 -0.012494 0
1.237798 -0.011595 0
1.251208 -0.004848 0
1.254491 0.006328 0
1.243990 0.019633 0
1.219003 0.032681 0
1.181187 0.042622 0
1.133711 0.045272 0
1.079428 0.037162 0
1.012973 0.083287 0
0.920836 0.187164 0
0.827813 0.226196 0
0.784893 0.141484 0
0.771047 0.013960 0
0.553096 0.026699 0
0.322777 0.101689 0
0.218597 0.077673 0
0.185841 0.024478 0
0.168591 -0.010921 0
0.165463 -0.039490 0
0.185172 -0.070661 0
0.231145 -0.098923 0
0.307658 -0.122358 0
0.413411 -0.141808 0
0.546363 -0.145117 0
0.698483 -0.128216 0
0.850179 -0.103048 0
0.988275 -0.097196 0
1.099781 -0.104273 0
1.201230 -0.103240 0
1.299939 -0.097961 0
1.389032 -0.088563 0
1.468476 -0.076272 0
1.535493 -0.060355 0
1.585478 -0.038564 0
1.613634 -0.011400 0
1.613441 0.013062 0
1.579235 0.027955 0
1.511389 0.055833 0
1.409886 0.128642 0
1.273327 0.230307 0
1.122059 0.286002 0
1.006460 0.193614 0
0.956519 0.050795 0
0.938743 -0.010259 0
0.917971 -0.026874 0
0.881686 -0.024349 0
0.847019 -0.013439 0
0.837669 -0.004572 0
0.834041 -0.000841 0
0.830934 0.000159 0
0.829457 -0.000348 0
0.829906 -0.001274 0
0.831812 -0.002104 0
0.834711 -0.002785 0
0.838269 -0.003390 0
0.842244 -0.003939 0
0.846526 -0.004390 0
0.851163 -0.004701 0
0.856296 -0.004887 0
0.861991 -0.005018 0
0.868092 -0.005138 0
0.874265 -0.005210 0
0.880160 -0.005146 0
0.885630 -0.004902 0
0.890754 -0.004540 0
0.895707 -0.004167 0
0.900621 -0.003852 0
0.905461 -0.003611 0
0.910017 -0.003389 0
0.914025 -0.003096 0
0.917295 -0.002668 0
0.919835 -0.002113 0
0.921819 -0.001548 0
0.923474 -0.001065 0
0.925010 -0.000804 0
0.926573 -0.000689 0
0.928093 -0.000793 0
0.929748 -0.001065 0
0.930819 -0.001160 0
1.000000 -0.009808 0
1.010032 -0.029580 0
1.030291 -0.049531 0
1.061078 -0.069201 0
1.102611 -0.087618 0
1.155061 -0.102679 0
1.216661 -0.111127 0
1.285625 -0.107133 0
1.346485 -0.088156 0
1.388897 -0.059833 0
1.411695 -0.029205 0
1.417065 -0.000701 0
1.408250 0.023611 0
1.388640 0.043394 0
1.359719 0.058552 0
1.322187 0.067088 0
1.280242 0.065612 0
1.241735 0.052179 0
1.215986 0.028603 0
1.210201 0.001331 0
1.223886 -0.021024 0
1.249093 -0.032556 0
1.277887 -0.031011 0
1.301502 -0.016701 0
1.312236 0.007207 0
1.305292 0.035478 0
1.281070 0.062791 0
1.243592 0.085276 0
1.195265 0.101741 0
1.133630 0.120719 0
1.051686 0.158573 0
1.006537 0.185143 0
1.023536 0.135924 0
1.090690 0.056748 0
0.964159 0.231780 0
0.620281 0.448254 0
0.444604 0.334486 0
0.436249 0.136925 0
0.450744 0.049997 0
0.419431 0.020372 0
0.337220 -0.016583 0
0.243115 -0.065682 0
0.177932 -0.122483 0
0.164317 -0.182260 0
0.205990 -0.238696 0
0.291397 -0.285061 0
0.416951 -0.303803 0
0.574954 -0.289777 0
0.752199 -0.249588 0
0.914063 -0.212941 0
1.045604 -0.200144 0
1.139860 -0.187790 0
1.216582 -0.168528 0
1.286933 -0.146452 0
1.348504 -0.116994 0
1.391129 -0.078135 0
1.409328 -0.027959 0
1.405787 0.034401 0
1.380527 0.102053 0
1.315249 0.169350 0
1.217633 0.238063 0
1.136918 0.287827 0
1.121308 0.266866 0
1.153377 0.165540 0
1.142860 0.067718 0
1.120991 0.038548 0
1.082965 0.057058 0
1.030566 0.070954 0
0.978354 0.044019 0
0.929795 0.012981 0
0.893912 0.006738 0
0.873374 0.004588 0
0.866590 0.001032 0
0.866815 -0.002351 0
0.869385 -0.004801 0
0.872538 -0.006452 0
0.875970 -0.007529 0
0.879879 -0.008253 0
0.884517 -0.008915 0
0.890011 -0.009766 0
0.896271 -0.010824 0
0.903029 -0.011793 0
0.909960 -0.012271 0
0.916831 -0.012065 0
0.923593 -0.011364 0
0.930304 -0.010593 0
0.937009 -0.010076 0
0.943639 -0.009867 0
0.949980 -0.009753 0
0.955774 -0.009397 0
0.960832 -0.008566 0
0.965121 -0.007279 0
0.968776 -0.005811 0
0.972005 -0.004527 0
0.974999 -0.003642 0
0.977867 -0.003193 0
0.980688 -0.003101 0
0.983360 -0.003086 0
0.985743 -0.003178 0
0.987749 -0.002729 0
0.988671 -0.002132 0
1.000000 -0.014614 0
1.008707 -0.044351 0
1.027865 -0.074891 0
1.058179 -0.105707 0
1.100539 -0.136051 0
1.157634 -0.162866 0
1.228315 -0.182593 0
1.324711 -0.179510 0
1.404618 -0.144405 0
1.451770 -0.093516 0
1.472120 -0.042154 0
1.471743 0.003193 0
1.456023 0.040155 0
1.431498 0.070025 0
1.397868 0.095119 0
1.349858 0.111809 0
1.291206 0.111726 0
1.234484 0.089207 0
1.196707 0.045942 0
1.193042 -0.005461 0
1.221592 -0.046312 0
1.263132 -0.066496 0
1.309089 -0.064006 0
1.348323 -0.039203 0
1.370931 0.002536 0
1.368171 0.050799 0
1.339866 0.094374 0
1.292620 0.128419 0
1.234604 0.155228 0
1.173500 0.180734 0
1.119502 0.210376 0
1.089244 0.215310 0
1.089482 0.142037 0
1.000867 0.200856 0
0.684744 0.484364 0
0.558136 0.546253 0
0.612358 0.285720 0
0.669875 0.071530 0
0.647394 0.041297 0
0.575633 0.102606 0
0.491980 0.136829 0
0.372079 0.088630 0
0.245990 -0.020120 0
0.174936 -0.150411 0
0.179558 -0.268882 0
0.238597 -0.356072 0
0.314437 -0.411766 0
0.402862 -0.438290 0
0.514801 -0.436300 0
0.662257 -0.397674 0
0.816702 -0.329034 0
0.943498 -0.268936 0
1.031550 -0.235634 0
1.089504 -0.208193 0
1.137517 -0.164550 0
1.174094 -0.099388 0
1.185629 -0.026059 0
1.167151 0.041862 0
1.126931 0.118492 0
1.079195 0.218725 0
1.040932 0.306973 0
1.034062 0.326633 0
1.056952 0.269543 0
1.074191 0.172062 0
1.046921 0.083181 0
0.998174 0.049637 0
0.961716 0.063552 0
0.943794 0.080263 0
0.927950 0.087334 0
0.894226 0.079871 0
0.864083 0.055582 0
0.849328 0.027483 0
0.852616 0.006212 0
0.858856 -0.004068 0
0.862908 -0.007825 0
0.865336 -0.009367 0
0.867727 -0.010729 0
0.871186 -0.012485 0
0.876122 -0.014521 0
0.882374 -0.016453 0
0.889467 -0.017904 0
0.896926 -0.018706 0
0.904522 -0.018939 0
0.912265 -0.018843 0
0.920231 -0.018618 0
0.928351 -0.018318 0
0.936357 -0.017875 0
0.943852 -0.017138 0
0.950494 -0.015988 0
0.956139 -0.014464 0
0.960933 -0.012737 0
0.965160 -0.011041 0
0.969093 -0.009552 0
0.972910 -0.008337 0
0.976675 -0.007412 0
0.980332 -0.006755 0
0.983710 -0.006298 0
0.986620 -0.005744 0
0.988913 -0.005183 0
0.990577 -0.003994 0
0.991407 -0.002972 0
1.000000 -0.018501 0
1.005402 -0.057431 0
1.022211 -0.099005 0
1.050725 -0.141874 0
1.091655 -0.187072 0
1.151961 -0.230458 0
1.231346 -0.278203 0
1.392866 -0.283432 0
1.493256 -0.215210 0
1.537775 -0.127330 0
1.551096 -0.049176 0
1.544301 0.015403 0
1.520959 0.063863 0
1.491558 0.101553 0
1.457263 0.140195 0
1.392936 0.173752 0
1.307928 0.180989 0
1.223607 0.146680 0
1.159106 0.070049 0
1.150323 -0.023554 0
1.201036 -0.091117 0
1.250343 -0.120054 0
1.306371 -0.116205 0
1.358450 -0.078546 0
1.401419 -0.012642 0
1.416041 0.066540 0
1.398317 0.138335 0
1.356767 0.190533 0
1.298943 0.220856 0
1.231573 0.235815 0
1.168189 0.242826 0
1.124986 0.215159 0
1.083872 0.224296 0
0.899177 0.461483 0
0.727625 0.674509 0
0.762519 0.520638 0
0.815690 0.222745 0
0.731241 0.101889 0
0.477920 0.144241 0
0.332559 0.175789 0
0.329084 0.186974 0
0.306933 0.180312 0
0.244869 0.074665 0
0.217626 -0.115823 0
0.250525 -0.302351 0
0.322972 -0.419934 0
0.404311 -0.468062 0
0.470409 -0.490136 0
0.508922 -0.508978 0
0.541799 -0.514838 0
0.610411 -0.481382 0
0.719155 -0.402635 0
0.818948 -0.314533 0
0.871171 -0.252419 0
0.879930 -0.201583 0
0.872327 -0.126247 0
0.862295 -0.021017 0
0.844909 0.093098 0
0.816967 0.190008 0
0.802251 0.255349 0
0.825872 0.283195 0
0.879554 0.271807 0
0.928643 0.226737 0
0.950763 0.175571 0
0.937124 0.143735 0
0.903909 0.123754 0
0.884585 0.111440 0
0.886050 0.104721 0
0.898314 0.093587 0
0.917071 0.076848 0
0.932092 0.051638 0
0.932289 0.016056 0
0.911469 -0.008494 0
0.888111 -0.012641 0
0.871135 -0.011279 0
0.861830 -0.011270 0
0.858965 -0.013376 0
0.860872 -0.016647 0
0.866039 -0.020102 0
0.873269 -0.023109 0
0.881737 -0.025375 0
0.890929 -0.026847 0
0.900536 -0.027610 0
0.910329 -0.027774 0
0.920037 -0.027449 0
0.929356 -0.026718 0
0.937985 -0.025577 0
0.945694 -0.024004 0
0.952383 -0.022040 0
0.958144 -0.019836 0
0.963141 -0.017588 0
0.967611 -0.015439 0
0.971801 -0.013561 0
0.975857 -0.012109 0
0.979804 -0.011064 0
0.983589 -0.010229 0
0.986990 -0.009390 0
0.989735 -0.008290 0
0.991810 -0.007136 0
0.993177 -0.005224 0
0.993915 -0.003756 0
1.000000 -0.020005 0
1.002197 -0.066552 0
1.012206 -0.120215 0
1.034304 -0.175150 0
1.070308 -0.237288 0
1.126123 -0.302560 0
1.220866 -0.423497 0
1.501743 -0.441415 0
1.586887 -0.289309 0
1.592976 -0.151354 0
1.584964 -0.048675 0
1.576454 0.033336 0
1.552438 0.092904 0
1.517849 0.133725 0
1.532630 0.193742 0
1.468026 0.261149 0
1.329485 0.281058 0
1.161068 0.238031 0
0.968257 0.119230 0
0.943788 -0.047392 0
1.074165 -0.146333 0
1.063024 -0.171831 0
1.080454 -0.172117 0
1.132618 -0.134253 0
1.208947 -0.055055 0
1.275191 0.053896 0
1.302303 0.153642 0
1.308523 0.227790 0
1.304217 0.280418 0
1.274345 0.311485 0
1.223482 0.316961 0
1.158415 0.299621 0
1.049730 0.367842 0
0.927795 0.557101 0
0.960587 0.621020 0
1.045923 0.458186 0
1.015207 0.316998 0
0.788119 0.409301 0
0.536528 0.439980 0
0.435719 0.251445 0
0.388933 0.162458 0
0.362686 0.172850 0
0.362623 0.069193 0
0.394479 -0.156062 0
0.457172 -0.374222 0
0.506125 -0.509852 0
0.539147 -0.559198 0
0.582346 -0.542896 0
0.617994 -0.507687 0
0.615447 -0.499160 0
0.584651 -0.506387 0
0.572920 -0.477471 0
0.600914 -0.387649 0
0.635924 -0.269175 0
0.640117 -0.165707 0
0.618491 -0.081754 0
0.596566 0.001358 0
0.592401 0.087190 0
0.610629 0.161150 0
0.647006 0.209819 0
0.696444 0.229669 0
0.749606 0.223861 0
0.796786 0.198334 0
0.828456 0.163581 0
0.853521 0.130035 0
0.878457 0.102177 0
0.899306 0.081411 0
0.918059 0.066534 0
0.932215 0.056314 0
0.938446 0.046095 0
0.937216 0.040366 0
0.922459 0.048107 0
0.890973 0.050392 0
0.862035 0.036268 0
0.843660 0.018457 0
0.835719 0.002804 0
0.835740 -0.009769 0
0.841204 -0.019558 0
0.850085 -0.026917 0
0.860912 -0.032150 0
0.872711 -0.035564 0
0.884932 -0.037504 0
0.897256 -0.038338 0
0.909414 -0.038343 0
0.921076 -0.037644 0
0.931811 -0.036265 0
0.941242 -0.034213 0
0.949221 -0.031536 0
0.955857 -0.028438 0
0.961436 -0.025222 0
0.966354 -0.022204 0
0.971061 -0.019701 0
0.975804 -0.017798 0
0.980514 -0.016341 0
0.984865 -0.015145 0
0.988720 -0.013941 0
0.991819 -0.012444 0
0.994023 -0.010564 0
0.995528 -0.008626 0
0.996254 -0.006099 0
0.996884 -0.004405 0
1.000000 -0.020690 0
1.000832 -0.069630 0
1.003624 -0.131114 0
1.002212 -0.199976 0
1.030808 -0.278894 0
1.055841 -0.381018 0
1.198121 -0.653822 0
1.537755 -0.649450 0
1.455465 -0.306441 0
1.350830 -0.125403 0
1.306948 -0.032649 0
1.318403 0.047934 0
1.319866 0.122475 0
1.246142 0.121365 0
1.415112 0.190021 0
1.464575 0.376901 0
1.310166 0.487950 0
1.160300 0.507911 0
1.115655 0.287332 0
0.826248 -0.129462 0
0.500968 -0.210351 0
0.358256 -0.126344 0
0.343561 -0.185801 0
0.418789 -0.207038 0
0.579293 -0.155217 0
0.779752 -0.026821 0
0.959681 0.105000 0
1.086567 0.188615 0
1.148017 0.255031 0
1.175599 0.316550 0
1.186525 0.358752 0
1.163666 0.388906 0
1.097514 0.454915 0
1.074246 0.550624 0
1.135294 0.556379 0
1.167023 0.466018 0
1.080894 0.480550 0
0.916546 0.580569 0
0.864550 0.496642 0
0.827256 0.323387 0
0.777525 0.260010 0
0.758204 0.206627 0
0.734374 0.042878 0
0.708215 -0.210366 0
0.734611 -0.413991 0
0.794601 -0.501904 0
0.771982 -0.544278 0
0.691420 -0.568978 0
0.653279 -0.542075 0
0.655842 -0.481493 0
0.642235 -0.438854 0
0.596923 -0.418897 0
0.552557 -0.377535 0
0.538003 -0.291621 0
0.543846 -0.184151 0
0.547731 -0.082697 0
0.546104 0.005072 0
0.550534 0.079035 0
0.570837 0.135402 0
0.608203 0.169532 0
0.658987 0.180595 0
0.717312 0.171464 0
0.776116 0.147887 0
0.825973 0.118836 0
0.860501 0.093734 0
0.876174 0.077969 0
0.874403 0.071838 0
0.860084 0.071814 0
0.838689 0.073202 0
0.815862 0.071848 0
0.792346 0.067626 0
0.776787 0.062300 0
0.777033 0.051931 0
0.782442 0.034674 0
0.789460 0.015039 0
0.798231 -0.003348 0
0.809131 -0.018860 0
0.822041 -0.030990 0
0.836519 -0.039809 0
0.852028 -0.045735 0
0.868047 -0.049393 0
0.884057 -0.051391 0
0.899511 -0.052091 0
0.913886 -0.051593 0
0.926710 -0.049846 0
0.937672 -0.046884 0
0.946835 -0.042987 0
0.954447 -0.038618 0
0.960899 -0.034255 0
0.966698 -0.030334 0
0.972325 -0.027213 0
0.978100 -0.024889 0
0.983672 -0.023015 0
0.988476 -0.021171 0
0.992158 -0.019271 0
0.995129 -0.017183 0
0.997182 -0.014694 0
0.998498 -0.012000 0
0.999389 -0.009368 0
0.999768 -0.006580 0
1.000206 -0.004960 0
1.000000 -0.020832 0
0.997636 -0.070174 0
0.998169 -0.121597 0
0.975031 -0.202335 0
0.987255 -0.290920 0
0.941352 -0.469875 0
1.067911 -0.905411 0
0.754240 -0.596377 0
0.001567 0.000000 0
0.000073 0.000000 0
0.518498 -0.013411 0
0.520451 0.020424 0
0.665688 0.165172 0
0.726083 0.038482 0
0.431795 -0.024687 0
0.791417 0.366099 0
1.041417 0.585336 0
0.747866 0.432547 0
0.491651 0.453284 0
0.262159 0.567297 0
-0.125233 0.321661 0
-0.179304 -0.014426 0
-0.394823 -0.232649 0
-0.232195 -0.369983 0
-0.090085 -0.416021 0
0.164315 -0.326495 0
0.476750 -0.153174 0
0.742399 0.039451 0
0.914833 0.191385 0
1.019610 0.272976 0
1.070597 0.328888 0
1.099939 0.388632 0
1.116655 0.457261 0
1.151054 0.519319 0
1.205790 0.528243 0
1.214583 0.512586 0
1.150970 0.567476 0
1.118630 0.625647 0
1.142054 0.529273 0
1.135239 0.338474 0
1.128271 0.231515 0
1.103413 0.216005 0
1.039418 0.119188 0
0.924597 -0.156293 0
0.784394 -0.460602 0
0.796726 -0.547218 0
0.830228 -0.456013 0
0.780398 -0.424189 0
0.689136 -0.472105 0
0.629130 -0.488113 0
0.614256 -0.447466 0
0.607757 -0.387791 0
0.587384 -0.328729 0
0.566251 -0.260465 0
0.558614 -0.175435 0
0.562414 -0.084012 0
0.572903 -0.001447 0
0.592607 0.062456 0
0.627540 0.103480 0
0.679587 0.121668 0
0.744186 0.120560 0
0.810573 0.106731 0
0.863881 0.089672 0
0.891301 0.079195 0
0.890286 0.079835 0
0.867712 0.088276 0
0.834420 0.097501 0
0.800228 0.102249 0
0.771482 0.100538 0
0.751188 0.092439 0
0.739461 0.079442 0
0.737154 0.063421 0
0.744246 0.044738 0
0.756330 0.023843 0
0.770491 0.002670 0
0.785706 -0.016865 0
0.801865 -0.033577 0
0.819133 -0.046944 0
0.837616 -0.056903 0
0.857046 -0.063677 0
0.876759 -0.067591 0
0.895660 -0.068968 0
0.912570 -0.068167 0
0.926784 -0.065540 0
0.938181 -0.061429 0
0.947476 -0.056390 0
0.956180 -0.050988 0
0.964713 -0.045599 0
0.972484 -0.040689 0
0.979093 -0.036648 0
0.984777 -0.033605 0
0.990108 -0.031048 0
0.994395 -0.028175 0
0.997409 -0.024827 0
0.999531 -0.021798 0
1.000976 -0.018966 0
1.001973 -0.015813 0
1.002726 -0.012772 0
1.003309 -0.009897 0
1.003669 -0.006916 0
1.003914 -0.005266 0
1.000000 -0.018324 0
0.998828 -0.067799 0
0.977419 -0.108511 0
0.977203 -0.189066 0
0.915017 -0.245219 0
0.875752 -0.461677 0
0.693207 -0.569092 0
0.000000 -0.005996 0
-0.639499 0.216609 0
-0.550109 0.000000 0
0.000000 0.000000 0
-0.013328 -0.099170 0
0.016524 -0.083153 0
0.060889 0.355262 0
0.369794 0.124692 0
0.220175 -0.232716 0
0.332296 0.531505 0
0.127647 1.057682 0
-0.439756 0.773040 0
-0.558904 0.487423 0
-0.296749 0.231113 0
-0.305200 0.143246 0
-0.335032 -0.132908 0
-0.291543 -0.511775 0
-0.251909 -0.551729 0
-0.136879 -0.593657 0
0.099026 -0.473085 0
0.395324 -0.249470 0
0.664547 -0.022180 0
0.865893 0.160784 0
0.973776 0.278421 0
1.032556 0.342848 0
1.089235 0.403798 0
1.156052 0.461488 0
1.219975 0.492850 0
1.247788 0.520839 0
1.248041 0.576505 0
1.286171 0.589487 0
1.353844 0.480037 0
1.372149 0.337174 0
1.304900 0.291841 0
1.200569 0.295485 0
1.127899 0.221700 0
1.067402 0.044664 0
0.945909 -0.286115 0
0.722312 -0.547733 0
0.593556 -0.527946 0
0.580851 -0.427884 0
0.601880 -0.390804 0
0.614732 -0.406610 0
0.626591 -0.417480 0
0.635855 -0.392024 0
0.637212 -0.336029 0
0.633226 -0.262852 0
0.632618 -0.180314 0
0.641961 -0.096986 0
0.664226 -0.025122 0
0.701697 0.024396 0
0.755247 0.048421 0
0.816601 0.052885 0
0.871272 0.049608 0
0.907386 0.051769 0
0.918419 0.067159 0
0.902586 0.092431 0
0.868544 0.117323 0
0.828848 0.133835 0
0.792832 0.139322 0
0.764687 0.134752 0
0.745179 0.122242 0
0.733609 0.103870 0
0.728811 0.081661 0
0.730347 0.057517 0
0.737986 0.032757 0
0.750699 0.008431 0
0.767542 -0.014335 0
0.787602 -0.034721 0
0.809857 -0.052287 0
0.833096 -0.066739 0
0.856297 -0.077720 0
0.878516 -0.084877 0
0.899073 -0.088006 0
0.917474 -0.087201 0
0.933610 -0.083214 0
0.947838 -0.077203 0
0.960108 -0.070536 0
0.969927 -0.064883 0
0.978863 -0.060224 0
0.986238 -0.054922 0
0.991997 -0.048635 0
0.996491 -0.042627 0
0.999865 -0.038228 0
1.002192 -0.034506 0
1.003677 -0.030315 0
1.004721 -0.026307 0
1.005684 -0.022838 0
1.006207 -0.019626 0
1.006666 -0.016445 0
1.007114 -0.013337 0
1.007464 -0.010311 0
1.007699 -0.007186 0
1.007836 -0.005472 0
1.000000 -0.019661 0
0.994146 -0.047594 0
0.968103 -0.099975 0
0.958358 -0.139939 0
0.876219 -0.189474 0
0.842478 -0.248068 0
0.485527 -0.122666 0
0.327992 0.003825 0
0.000000 0.000000 0
0.000000 0.000000 0
0.000000 0.000000 0
0.000000 0.000000 0
-0.103153 0.086974 0
-0.070740 -0.314783 0
0.265794 -0.183968 0
-0.061008 0.403601 0
-0.361355 0.677870 0
-0.124370 1.204602 0
-0.365019 1.139838 0
-0.506042 0.424293 0
-0.205999 0.067957 0
-0.212596 0.023859 0
0.089835 -0.246304 0
0.038643 -0.453106 0
0.079366 -0.570686 0
0.077944 -0.677431 0
0.107282 -0.685378 0
0.259233 -0.526070 0
0.479010 -0.279184 0
0.708388 -0.036256 0
0.887825 0.162226 0
0.988594 0.273172 0
1.053810 0.333764 0
1.132069 0.388580 0
1.206902 0.436509 0
1.262844 0.484522 0
1.313343 0.529094 0
1.387575 0.519847 0
1.449565 0.443299 0
1.429244 0.387422 0
1.336858 0.403101 0
1.266875 0.393012 0
1.270254 0.252360 0
1.295525 0.025702 0
1.253418 -0.115507 0
0.983152 -0.194860 0
0.670626 -0.314549 0
0.511610 -0.432511 0
0.503385 -0.505984 0
0.556236 -0.512821 0
0.617495 -0.468587 0
0.664832 -0.398412 0
0.695618 -0.326100 0
0.720770 -0.255871 0
0.750427 -0.184170 0
0.784043 -0.115621 0
0.816877 -0.061185 0
0.847987 -0.028566 0
0.880573 -0.011425 0