# vtk DataFile Version 2.0
generated by CFD-lab course output (written by Tobias Neckel) 
ASCII

DATASET STRUCTURED_GRID
DIMENSIONS  101 21 1 
POINTS 2121 float

0.000000 0.000000 0
0.100000 0.000000 0
0.200000 0.000000 0
0.300000 0.000000 0
0.400000 0.000000 0
0.500000 0.000000 0
0.600000 0.000000 0
0.700000 0.000000 0
0.800000 0.000000 0
0.900000 0.000000 0
1.000000 0.000000 0
1.100000 0.000000 0
1.200000 0.000000 0
1.300000 0.000000 0
1.400000 0.000000 0
1.500000 0.000000 0
1.600000 0.000000 0
1.700000 0.000000 0
1.800000 0.000000 0
1.900000 0.000000 0
2.000000 0.000000 0
2.100000 0.000000 0
2.200000 0.000000 0
2.300000 0.000000 0
2.400000 0.000000 0
2.500000 0.000000 0
2.600000 0.000000 0
2.700000 0.000000 0
2.800000 0.000000 0
2.900000 0.000000 0
3.000000 0.000000 0
3.100000 0.000000 0
3.200000 0.000000 0
3.300000 0.000000 0
3.400000 0.000000 0
3.500000 0.000000 0
3.600000 0.000000 0
3.700000 0.000000 0
3.800000 0.000000 0
3.900000 0.000000 0
4.000000 0.000000 0
4.100000 0.000000 0
4.200000 0.000000 0
4.300000 0.000000 0
4.400000 0.000000 0
4.500000 0.000000 0
4.600000 0.000000 0
4.700000 0.000000 0
4.800000 0.000000 0
4.900000 0.000000 0
5.000000 0.000000 0
5.100000 0.000000 0
5.200000 0.000000 0
5.300000 0.000000 0
5.400000 0.000000 0
5.500000 0.000000 0
5.600000 0.000000 0
5.700000 0.000000 0
5.800000 0.000000 0
5.900000 0.000000 0
6.000000 0.000000 0
6.100000 0.000000 0
6.200000 0.000000 0
6.300000 0.000000 0
6.400000 0.000000 0
6.500000 0.000000 0
6.600000 0.000000 0
6.700000 0.000000 0
6.800000 0.000000 0
6.900000 0.000000 0
7.000000 0.000000 0
7.100000 0.000000 0
7.200000 0.000000 0
7.300000 0.000000 0
7.400000 0.000000 0
7.500000 0.000000 0
7.600000 0.000000 0
7.700000 0.000000 0
7.800000 0.000000 0
7.900000 0.000000 0
8.000000 0.000000 0
8.100000 0.000000 0
8.200000 0.000000 0
8.300000 0.000000 0
8.400000 0.000000 0
8.500000 0.000000 0
8.600000 0.000000 0
8.700000 0.000000 0
8.800000 0.000000 0
8.900000 0.000000 0
9.000000 0.000000 0
9.100000 0.000000 0
9.200000 0.000000 0
9.300000 0.000000 0
9.400000 0.000000 0
9.500000 0.000000 0
9.600000 0.000000 0
9.700000 0.000000 0
9.800000 0.000000 0
9.900000 0.000000 0
10.000000 0.000000 0
0.000000 0.100000 0
0.100000 0.100000 0
0.200000 0.100000 0
0.300000 0.100000 0
0.400000 0.100000 0
0.500000 0.100000 0
0.600000 0.100000 0
0.700000 0.100000 0
0.800000 0.100000 0
0.900000 0.100000 0
1.000000 0.100000 0
1.100000 0.100000 0
1.200000 0.100000 0
1.300000 0.100000 0
1.400000 0.100000 0
1.500000 0.100000 0
1.600000 0.100000 0
1.700000 0.100000 0
1.800000 0.100000 0
1.900000 0.100000 0
2.000000 0.100000 0
2.100000 0.100000 0
2.200000 0.100000 0
2.300000 0.100000 0
2.400000 0.100000 0
2.500000 0.100000 0
2.600000 0.100000 0
2.700000 0.100000 0
2.800000 0.100000 0
2.900000 0.100000 0
3.000000 0.100000 0
3.100000 0.100000 0
3.200000 0.100000 0
3.300000 0.100000 0
3.400000 0.100000 0
3.500000 0.100000 0
3.600000 0.100000 0
3.700000 0.100000 0
3.800000 0.100000 0
3.900000 0.100000 0
4.000000 0.100000 0
4.100000 0.100000 0
4.200000 0.100000 0
4.300000 0.100000 0
4.400000 0.100000 0
4.500000 0.100000 0
4.600000 0.100000 0
4.700000 0.100000 0
4.800000 0.100000 0
4.900000 0.100000 0
5.000000 0.100000 0
5.100000 0.100000 0
5.200000 0.100000 0
5.300000 0.100000 0
5.400000 0.100000 0
5.500000 0.100000 0
5.600000 0.100000 0
5.700000 0.100000 0
5.800000 0.100000 0
5.900000 0.100000 0
6.000000 0.100000 0
6.100000 0.100000 0
6.200000 0.100000 0
6.300000 0.100000 0
6.400000 0.100000 0
6.500000 0.100000 0
6.600000 0.100000 0
6.700000 0.100000 0
6.800000 0.100000 0
6.900000 0.100000 0
7.000000 0.100000 0
7.100000 0.100000 0
7.200000 0.100000 0
7.300000 0.100000 0
7.400000 0.100000 0
7.500000 0.100000 0
7.600000 0.100000 0
7.700000 0.100000 0
7.800000 0.100000 0
7.900000 0.100000 0
8.000000 0.100000 0
8.100000 0.100000 0
8.200000 0.100000 0
8.300000 0.100000 0
8.400000 0.100000 0
8.500000 0.100000 0
8.600000 0.100000 0
8.700000 0.100000 0
8.800000 0.100000 0
8.900000 0.100000 0
9.000000 0.100000 0
9.100000 0.100000 0
9.200000 0.100000 0
9.300000 0.100000 0
9.400000 0.100000 0
9.500000 0.100000 0
9.600000 0.100000 0
9.700000 0.100000 0
9.800000 0.100000 0
9.900000 0.100000 0
10.000000 0.100000 0
0.000000 0.200000 0
0.100000 0.200000 0
0.200000 0.200000 0
0.300000 0.200000 0
0.400000 0.200000 0
0.500000 0.200000 0
0.600000 0.200000 0
0.700000 0.200000 0
0.800000 0.200000 0
0.900000 0.200000 0
1.000000 0.200000 0
1.100000 0.200000 0
1.200000 0.200000 0
1.300000 0.200000 0
1.400000 0.200000 0
1.500000 0.200000 0
1.600000 0.200000 0
1.700000 0.200000 0
1.800000 0.200000 0
1.900000 0.200000 0
2.000000 0.200000 0
2.100000 0.200000 0
2.200000 0.200000 0
2.300000 0.200000 0
2.400000 0.200000 0
2.500000 0.200000 0
2.600000 0.200000 0
2.700000 0.200000 0
2.800000 0.200000 0
2.900000 0.200000 0
3.000000 0.200000 0
3.100000 0.200000 0
3.200000 0.200000 0
3.300000 0.200000 0
3.400000 0.200000 0
3.500000 0.200000 0
3.600000 0.200000 0
3.700000 0.200000 0
3.800000 0.200000 0
3.900000 0.200000 0
4.000000 0.200000 0
4.100000 0.200000 0
4.200000 0.200000 0
4.300000 0.200000 0
4.400000 0.200000 0
4.500000 0.200000 0
4.600000 0.200000 0
4.700000 0.200000 0
4.800000 0.200000 0
4.900000 0.200000 0
5.000000 0.200000 0
5.100000 0.200000 0
5.200000 0.200000 0
5.300000 0.200000 0
5.400000 0.200000 0
5.500000 0.200000 0
5.600000 0.200000 0
5.700000 0.200000 0
5.800000 0.200000 0
5.900000 0.200000 0
6.000000 0.200000 0
6.100000 0.200000 0
6.200000 0.200000 0
6.300000 0.200000 0
6.400000 0.200000 0
6.500000 0.200000 0
6.600000 0.200000 0
6.700000 0.200000 0
6.800000 0.200000 0
6.900000 0.200000 0
7.000000 0.200000 0
7.100000 0.200000 0
7.200000 0.200000 0
7.300000 0.200000 0
7.400000 0.200000 0
7.500000 0.200000 0
7.600000 0.200000 0
7.700000 0.200000 0
7.800000 0.200000 0
7.900000 0.200000 0
8.000000 0.200000 0
8.100000 0.200000 0
8.200000 0.200000 0
8.300000 0.200000 0
8.400000 0.200000 0
8.500000 0.200000 0
8.600000 0.200000 0
8.700000 0.200000 0
8.800000 0.200000 0
8.900000 0.200000 0
9.000000 0.200000 0
9.100000 0.200000 0
9.200000 0.200000 0
9.300000 0.200000 0
9.400000 0.200000 0
9.500000 0.200000 0
9.600000 0.200000 0
9.700000 0.200000 0
9.800000 0.200000 0
9.900000 0.200000 0
10.000000 0.200000 0
0.000000 0.300000 0
0.100000 0.300000 0
0.200000 0.300000 0
0.300000 0.300000 0
0.400000 0.300000 0
0.500000 0.300000 0
0.600000 0.300000 0
0.700000 0.300000 0
0.800000 0.300000 0
0.900000 0.300000 0
1.000000 0.300000 0
1.100000 0.300000 0
1.200000 0.300000 0
1.300000 0.300000 0
1.400000 0.300000 0
1.500000 0.300000 0
1.600000 0.300000 0
1.700000 0.300000 0
1.800000 0.300000 0
1.900000 0.300000 0
2.000000 0.300000 0
2.100000 0.300000 0
2.200000 0.300000 0
2.300000 0.300000 0
2.400000 0.300000 0
2.500000 0.300000 0
2.600000 0.300000 0
2.700000 0.300000 0
2.800000 0.300000 0
2.900000 0.300000 0
3.000000 0.300000 0
3.100000 0.300000 0
3.200000 0.300000 0
3.300000 0.300000 0
3.400000 0.300000 0
3.500000 0.300000 0
3.600000 0.300000 0
3.700000 0.300000 0
3.800000 0.300000 0
3.900000 0.300000 0
4.000000 0.300000 0
4.100000 0.300000 0
4.200000 0.300000 0
4.300000 0.300000 0
4.400000 0.300000 0
4.500000 0.300000 0
4.600000 0.300000 0
4.700000 0.300000 0
4.800000 0.300000 0
4.900000 0.300000 0
5.000000 0.300000 0
5.100000 0.300000 0
5.200000 0.300000 0
5.300000 0.300000 0
5.400000 0.300000 0
5.500000 0.300000 0
5.600000 0.300000 0
5.700000 0.300000 0
5.800000 0.300000 0
5.900000 0.300000 0
6.000000 0.300000 0
6.100000 0.300000 0
6.200000 0.300000 0
6.300000 0.300000 0
6.400000 0.300000 0
6.500000 0.300000 0
6.600000 0.300000 0
6.700000 0.300000 0
6.800000 0.300000 0
6.900000 0.300000 0
7.000000 0.300000 0
7.100000 0.300000 0
7.200000 0.300000 0
7.300000 0.300000 0
7.400000 0.300000 0
7.500000 0.300000 0
7.600000 0.300000 0
7.700000 0.300000 0
7.800000 0.300000 0
7.900000 0.300000 0
8.000000 0.300000 0
8.100000 0.300000 0
8.200000 0.300000 0
8.300000 0.300000 0
8.400000 0.300000 0
8.500000 0.300000 0
8.600000 0.300000 0
8.700000 0.300000 0
8.800000 0.300000 0
8.900000 0.300000 0
9.000000 0.300000 0
9.100000 0.300000 0
9.200000 0.300000 0
9.300000 0.300000 0
9.400000 0.300000 0
9.500000 0.300000 0
9.600000 0.300000 0
9.700000 0.300000 0
9.800000 0.300000 0
9.900000 0.300000 0
10.000000 0.300000 0
0.000000 0.400000 0
0.100000 0.400000 0
0.200000 0.400000 0
0.300000 0.400000 0
0.400000 0.400000 0
0.500000 0.400000 0
0.600000 0.400000 0
0.700000 0.400000 0
0.800000 0.400000 0
0.900000 0.400000 0
1.000000 0.400000 0
1.100000 0.400000 0
1.200000 0.400000 0
1.300000 0.400000 0
1.400000 0.400000 0
1.500000 0.400000 0
1.600000 0.400000 0
1.700000 0.400000 0
1.800000 0.400000 0
1.900000 0.400000 0
2.000000 0.400000 0
2.100000 0.400000 0
2.200000 0.400000 0
2.300000 0.400000 0
2.400000 0.400000 0
2.500000 0.400000 0
2.600000 0.400000 0
2.700000 0.400000 0
2.800000 0.400000 0
2.900000 0.400000 0
3.000000 0.400000 0
3.100000 0.400000 0
3.200000 0.400000 0
3.300000 0.400000 0
3.400000 0.400000 0
3.500000 0.400000 0
3.600000 0.400000 0
3.700000 0.400000 0
3.800000 0.400000 0
3.900000 0.400000 0
4.000000 0.400000 0
4.100000 0.400000 0
4.200000 0.400000 0
4.300000 0.400000 0
4.400000 0.400000 0
4.500000 0.400000 0
4.600000 0.400000 0
4.700000 0.400000 0
4.800000 0.400000 0
4.900000 0.400000 0
5.000000 0.400000 0
5.100000 0.400000 0
5.200000 0.400000 0
5.300000 0.400000 0
5.400000 0.400000 0
5.500000 0.400000 0
5.600000 0.400000 0
5.700000 0.400000 0
5.800000 0.400000 0
5.900000 0.400000 0
6.000000 0.400000 0
6.100000 0.400000 0
6.200000 0.400000 0
6.300000 0.400000 0
6.400000 0.400000 0
6.500000 0.400000 0
6.600000 0.400000 0
6.700000 0.400000 0
6.800000 0.400000 0
6.900000 0.400000 0
7.000000 0.400000 0
7.100000 0.400000 0
7.200000 0.400000 0
7.300000 0.400000 0
7.400000 0.400000 0
7.500000 0.400000 0
7.600000 0.400000 0
7.700000 0.400000 0
7.800000 0.400000 0
7.900000 0.400000 0
8.000000 0.400000 0
8.100000 0.400000 0
8.200000 0.400000 0
8.300000 0.400000 0
8.400000 0.400000 0
8.500000 0.400000 0
8.600000 0.400000 0
[...]
POINT_DATA 2121 

VECTORS velocity float
0.500000 0.000000 0
-0.000050 0.000000 0
-0.000120 0.000000 0
-0.000196 0.000000 0
-0.000260 0.000000 0
-0.000299 0.000000 0
-0.000296 0.000000 0
-0.000225 0.000000 0
-0.000031 0.000000 0
0.000318 0.000000 0
0.000798 0.000000 0
0.001353 0.000000 0
0.001925 0.000000 0
0.002535 0.000000 0
0.003197 0.000000 0
0.003882 0.000000 0
0.004445 0.000000 0
0.005937 0.000000 0
0.005490 0.000000 0
0.005889 0.000000 0
0.005610 0.000000 0
0.004101 0.000000 0
0.002022 0.000000 0
-0.002828 0.000000 0
-0.017524 0.000000 0
-0.032434 0.000000 0
-0.032206 0.000000 0
-0.038853 0.000000 0
-0.043826 0.000000 0
-0.039715 0.000000 0
-0.017928 0.000000 0
-0.002495 0.000000 0
0.010470 0.000000 0
0.026022 0.000000 0
0.033020 0.000000 0
0.030293 0.000000 0
0.024315 0.000000 0
0.017695 0.000000 0
0.011757 0.000000 0
0.007021 0.000000 0
0.003514 0.000000 0
0.001137 0.000000 0
-0.000369 0.000000 0
-0.001258 0.000000 0
-0.001511 0.000000 0
-0.000984 0.000000 0
0.000212 0.000000 0
0.001610 0.000000 0
0.002567 0.000000 0
0.002781 0.000000 0
0.004161 0.000000 0
0.006902 0.000000 0
-0.000493 0.000000 0
-0.006097 0.000000 0
0.008496 0.000000 0
0.019295 0.000000 0
0.018282 0.000000 0
0.009427 0.000000 0
0.000689 0.000000 0
-0.006302 0.000000 0
-0.008575 0.000000 0
-0.011062 0.000000 0
-0.009797 0.000000 0
-0.004981 0.000000 0
0.000566 0.000000 0
0.004415 0.000000 0
0.005732 0.000000 0
0.005015 0.000000 0
0.003043 0.000000 0
0.000319 0.000000 0
-0.002694 0.000000 0
-0.005382 0.000000 0
-0.007404 0.000000 0
-0.008663 0.000000 0
-0.009241 0.000000 0
-0.009167 0.000000 0
-0.008493 0.000000 0
-0.007318 0.000000 0
-0.006109 0.000000 0
-0.005836 0.000000 0
-0.006666 0.000000 0
-0.007520 0.000000 0
-0.007593 0.000000 0
-0.007305 0.000000 0
-0.006824 0.000000 0
-0.006171 0.000000 0
-0.005321 0.000000 0
-0.004247 0.000000 0
-0.002842 0.000000 0
-0.000952 0.000000 0
0.001208 0.000000 0
0.002756 0.000000 0
0.002677 0.000000 0
0.000765 0.000000 0
-0.002155 0.000000 0
-0.004649 0.000000 0
-0.004793 0.000000 0
-0.001093 0.000000 0
0.005533 0.000000 0
0.010733 0.000000 0
0.012637 0.000000 0
1.000000 -0.004764 0
1.010126 -0.014860 0
1.031176 -0.025808 0
1.063764 -0.036980 0
1.107985 -0.047456 0
1.162917 -0.055713 0
1.225519 -0.059734 0
1.290883 -0.056973 0
1.349067 -0.046140 0
1.390647 -0.029196 0
1.411537 -0.009508 0
1.411189 0.010301 0
1.391200 0.028801 0
1.353951 0.045772 0
1.300661 0.061564 0
1.232119 0.075124 0
1.149958 0.086243 0
1.056086 0.107668 0
0.949040 0.126012 0
0.827800 0.133034 0
0.689071 0.134702 0
0.557965 0.128385 0
0.434358 0.115368 0
0.280414 0.060570 0
0.225766 -0.094281 0
0.390225 -0.271819 0
0.716992 -0.321452 0
1.048635 -0.326850 0
1.355360 -0.348852 0
1.643920 -0.299122 0
1.883519 -0.176264 0
2.037994 -0.048775 0
2.079738 0.047694 0
2.007663 0.141115 0
1.852404 0.203299 0
1.667391 0.206415 0
1.490937 0.178385 0
1.347188 0.137123 0
1.242552 0.093203 0
1.174842 0.053241 0
1.139362 0.021073 0
1.129654 -0.001730 0
1.137023 -0.015532 0
1.154345 -0.021392 0
1.175637 -0.019415 0
1.193399 -0.009726 0
1.199466 0.005373 0
1.188864 0.020936 0
1.162321 0.030801 0
1.124909 0.034965 0
1.081135 0.055109 0
1.033136 0.071077 0
0.995493 0.000534 0
0.983446 -0.036498 0
0.951775 0.103286 0
0.873385 0.250863 0
0.767300 0.251252 0
0.676421 0.147299 0
0.625534 0.025070 0
0.606524 -0.063983 0
0.594443 -0.108524 0
0.608846 -0.126630 0
0.670626 -0.112775 0
0.695432 -0.060122 0
0.663158 0.001301 0
0.596656 0.045517 0
0.520877 0.064750 0
0.451089 0.062574 0
0.396239 0.044154 0
0.365821 0.014019 0
0.366078 -0.021010 0
0.395868 -0.050157 0
0.447177 -0.067917 0
0.511639 -0.074930 0
0.586150 -0.075292 0
0.668474 -0.073184 0
0.754375 -0.068405 0
0.837814 -0.060047 0
0.912705 -0.050760 0
0.975716 -0.050141 0
1.031327 -0.058398 0
1.094966 -0.064818 0
1.161126 -0.066086 0
1.225455 -0.063636 0
1.285877 -0.059051 0
1.340996 -0.052782 0
1.389176 -0.044838 0
1.428454 -0.035107 0
1.456925 -0.023085 0
1.472519 -0.008421 0
1.473210 0.006716 0
1.460126 0.016434 0
1.439983 0.014613 0
1.422046 0.000334 0
1.414423 -0.020945 0
1.422839 -0.040193 0
1.447613 -0.045937 0
1.475648 -0.027812 0
1.500022 0.006229 0
1.509498 0.022864 0
1.497040 0.023364 0
1.000000 -0.010131 0
1.010306 -0.031182 0
1.031978 -0.053640 0
1.066018 -0.076811 0
1.113232 -0.099155 0
1.174015 -0.117537 0
1.245450 -0.127969 0
1.326093 -0.123552 0
1.397777 -0.099768 0
1.445694 -0.062474 0
1.467936 -0.020547 0
1.465740 0.020332 0
1.442526 0.057233 0
1.403753 0.090534 0
1.349867 0.121827 0
1.280492 0.150698 0
1.195324 0.176028 0
1.098329 0.200913 0
0.995692 0.228281 0
0.860745 0.259964 0
0.722106 0.269831 0
0.618028 0.254708 0
0.481481 0.277545 0
0.351752 0.208587 0
0.360269 -0.109816 0
0.445741 -0.491230 0
0.639183 -0.658414 0
0.946792 -0.638373 0
1.175192 -0.595290 0
1.358187 -0.528163 0
1.535790 -0.394079 0
1.706304 -0.196223 0
1.802640 0.030327 0
1.794531 0.227331 0
1.723910 0.340269 0
1.614373 0.361464 0
1.490884 0.320200 0
1.373516 0.248382 0
1.275316 0.172344 0
1.208813 0.103188 0
1.176443 0.045187 0
1.172398 0.002337 0
1.182511 -0.024692 0
1.199334 -0.038615 0
1.220640 -0.039054 0
1.241582 -0.023829 0
1.253930 0.004535 0
1.250482 0.037146 0
1.228626 0.063956 0
1.189840 0.081187 0
1.141381 0.091774 0
1.109355 0.085643 0
1.083928 0.049691 0
1.011853 0.043720 0
0.981919 0.110062 0
1.055017 0.184476 0
1.154897 0.196966 0
1.210373 0.141767 0
1.200420 0.069898 0
1.135329 0.031092 0
1.038145 -0.002321 0
0.938601 -0.076182 0
0.833919 -0.086585 0
0.728794 0.007468 0
0.604462 0.098776 0
0.495273 0.142282 0
0.415545 0.145566 0
0.363024 0.124638 0
0.331581 0.085268 0
0.317207 0.030160 0
0.315809 -0.030048 0
0.326084 -0.081100 0
0.346223 -0.115773 0
0.378376 -0.138975 0
0.429027 -0.156838 0
0.503675 -0.168227 0
0.599523 -0.169342 0
0.707155 -0.158334 0
0.815261 -0.137906 0
0.912941 -0.118625 0
0.991063 -0.119254 0
1.059416 -0.129803 0
1.125490 -0.130493 0
1.186827 -0.124756 0
1.243386 -0.115546 0
1.294668 -0.103304 0
1.339012 -0.087463 0
1.373544 -0.067754 0
1.396159 -0.044071 0
1.406942 -0.016290 0
1.405816 0.012387 0
1.389341 0.033220 0
1.353934 0.038073 0
1.305107 0.025554 0
1.259497 -0.000799 0
1.234422 -0.033196 0
1.240082 -0.052816 0
1.249579 -0.052416 0
1.227481 -0.033857 0
1.164465 0.002976 0
1.144951 0.030037 0
1.000000 -0.015071 0
1.008772 -0.046839 0
1.029511 -0.081518 0
1.063669 -0.118233 0
1.113201 -0.155453 0
1.181414 -0.187931 0
1.264620 -0.211812 0
1.379262 -0.209301 0
1.469840 -0.165742 0
1.524170 -0.099356 0
1.545628 -0.029556 0
1.540544 0.035711 0
1.514884 0.090787 0
1.470903 0.138430 0
1.411756 0.184824 0
1.337371 0.229666 0
1.250190 0.268404 0
1.147593 0.307298 0
1.036622 0.363595 0
0.975176 0.406620 0
0.882043 0.377418 0
0.736931 0.369008 0
0.561983 0.381643 0
0.537410 0.181780 0
0.660953 -0.188271 0
0.757489 -0.550734 0
0.775897 -0.822504 0
0.905972 -0.862860 0
1.066970 -0.760248 0
1.178553 -0.659721 0
1.268752 -0.524382 0
1.351120 -0.315627 0
1.427868 -0.040534 0
1.481259 0.219844 0
1.495954 0.383456 0
1.466126 0.439440 0
1.396297 0.419242 0
1.303562 0.352691 0
1.220627 0.257905 0
1.168779 0.152114 0
1.149274 0.057488 0
1.165925 -0.007799 0
1.188376 -0.042468 0
1.206363 -0.059521 0
1.222269 -0.061663 0
1.234846 -0.043016 0
1.241055 -0.003527 0
1.237153 0.046240 0
1.220246 0.091443 0
1.192467 0.122210 0
1.158157 0.135594 0
1.121250 0.128531 0
1.071642 0.098037 0
1.027819 0.065512 0
1.048787 0.060122 0
1.142421 0.077885 0
1.267368 0.095897 0
1.356591 0.101776 0
1.367711 0.100115 0
1.308306 0.098293 0
1.241421 0.088204 0
1.175732 0.077596 0
1.005126 0.097032 0
0.729596 0.169336 0
0.526271 0.234822 0
0.414993 0.234434 0
0.369613 0.196999 0
0.365640 0.146537 0
0.389616 0.089971 0
0.420152 0.029791 0
0.438577 -0.029888 0
0.439269 -0.080572 0
0.428709 -0.120210 0
0.423872 -0.157735 0
0.436657 -0.200592 0
0.472479 -0.243682 0
0.537366 -0.271886 0
0.626455 -0.275786 0
0.732803 -0.256546 0
0.844503 -0.225945 0
0.949086 -0.204875 0
1.030021 -0.199246 0
1.095838 -0.193498 0
1.153234 -0.181535 0
1.204518 -0.166895 0
1.250894 -0.148410 0
1.291015 -0.123716 0
1.319693 -0.092256 0
1.331014 -0.056484 0
1.323090 -0.018080 0
1.297878 0.024315 0
1.257688 0.068315 0
1.205708 0.098845 0
1.152768 0.094769 0
1.115143 0.049738 0
1.096443 -0.020781 0
1.050849 -0.061097 0
0.969654 -0.015214 0
0.864246 0.091340 0
0.772685 0.105392 0
0.750428 0.063969 0
1.000000 -0.018903 0
1.004551 -0.060691 0
1.023129 -0.108534 0
1.055769 -0.160499 0
1.105696 -0.216898 0
1.180048 -0.268955 0
1.276715 -0.325816 0
1.463252 -0.328770 0
1.575365 -0.244677 0
1.627728 -0.138263 0
1.642847 -0.036921 0
1.632635 0.051075 0
1.605249 0.126872 0
1.563615 0.193660 0
1.500178 0.255358 0
1.406542 0.312263 0
1.292120 0.365805 0
1.172845 0.414481 0
1.084437 0.400697 0
0.986009 0.414543 0
0.825882 0.508074 0
0.707644 0.574767 0
0.635499 0.477066 0
0.667496 0.109615 0
0.710206 -0.329897 0
0.758639 -0.606175 0
0.802125 -0.806898 0
0.817064 -0.929447 0
0.900497 -0.867871 0
1.007399 -0.729946 0
1.078556 -0.566647 0
1.104902 -0.355341 0
1.128746 -0.099813 0
1.177372 0.159244 0
1.224232 0.355402 0
1.247821 0.461120 0
1.228402 0.482764 0
1.192206 0.424052 0
1.120773 0.307126 0
1.047407 0.174541 0
1.065029 0.048040 0
1.125569 -0.036765 0
1.173741 -0.065129 0
1.201759 -0.072508 0
1.215346 -0.067536 0
1.206086 -0.042614 0
1.178487 0.002228 0
1.148971 0.057955 0
1.122075 0.108642 0
1.099742 0.143277 0
1.082988 0.162992 0
1.060941 0.172158 0
1.009041 0.143122 0
0.958256 0.066575 0
0.992905 -0.004539 0
1.107668 -0.034104 0
1.234466 -0.017204 0
1.330327 0.041425 0
1.349439 0.118183 0
1.332771 0.157383 0
1.317755 0.130254 0
1.152054 0.160114 0
0.848491 0.359551 0
0.564315 0.486323 0
0.416606 0.413380 0
0.371972 0.298940 0
0.385118 0.194919 0
0.424074 0.104635 0
0.476014 0.030756 0
0.528869 -0.018801 0
0.573142 -0.049165 0
0.607400 -0.071232 0
0.631910 -0.100376 0
0.656227 -0.146924 0
0.685197 -0.205445 0
0.710817 -0.268937 0
0.740450 -0.323319 0
0.776851 -0.353772 0
0.826373 -0.355955 0
0.894070 -0.334909 0
0.974294 -0.304773 0
1.042776 -0.276556 0
1.095877 -0.253708 0
1.140387 -0.233438 0
1.179322 -0.213208 0
1.215953 -0.189802 0
1.251204 -0.156263 0
1.277973 -0.107756 0
1.284312 -0.047470 0
1.263024 0.016843 0
1.218030 0.077786 0
1.165621 0.125388 0
1.123531 0.142992 0
1.103148 0.116118 0
1.092441 0.055524 0
1.030255 0.031096 0
0.906126 0.073970 0
0.766600 0.134185 0
0.684181 0.163110 0
0.700704 0.116792 0
0.698314 0.071469 0
1.000000 -0.019620 0
1.002270 -0.069963 0
1.012856 -0.132733 0
1.036450 -0.200797 0
1.082557 -0.279728 0
1.151970 -0.358947 0
1.267304 -0.495015 0
1.591382 -0.507950 0
1.678182 -0.330218 0
1.686284 -0.166837 0
1.681033 -0.034463 0
1.669420 0.073308 0
1.651311 0.159806 0
1.646986 0.243500 0
1.630100 0.341897 0
1.554500 0.437723 0
1.422412 0.502101 0
1.276349 0.514981 0
1.128278 0.550430 0
0.890346 0.665175 0
0.760277 0.655782 0
0.764566 0.559390 0
0.689104 0.421790 0
0.662635 0.107072 0
0.628399 -0.279415 0
0.599497 -0.642653 0
0.647121 -0.880929 0
0.695117 -0.961234 0
0.716491 -0.950585 0
0.753575 -0.837781 0
0.825351 -0.621886 0
0.888351 -0.365817 0
0.924900 -0.113004 0
0.957621 0.124357 0
1.015670 0.313006 0
1.081509 0.435269 0
1.112062 0.474856 0
1.068322 0.460319 0
0.994308 0.402703 0
0.919851 0.207858 0
0.896692 -0.020674 0
0.865077 -0.116510 0
0.838638 -0.118657 0
0.854793 -0.101126 0
0.897643 -0.065990 0
0.918981 -0.006157 0
0.913420 0.053589 0
0.891950 0.102653 0
0.876047 0.140672 0
0.873771 0.161298 0
0.898529 0.174396 0
0.961825 0.202479 0
0.980151 0.200723 0
0.889831 0.081649 0
0.815396 -0.089290 0
0.878107 -0.163675 0
1.062804 -0.126762 0
1.193980 -0.013197 0
1.236629 0.097672 0
1.202641 0.129978 0
1.044934 0.268922 0
0.732079 0.546860 0
0.449562 0.684771 0
0.388238 0.601222 0
0.416135 0.427165 0
0.464040 0.265922 0
0.512984 0.144898 0
0.552991 0.055641 0
0.577349 -0.014824 0
0.597654 -0.067338 0
0.630743 -0.108419 0
0.682699 -0.139339 0
0.765068 -0.169038 0
0.859599 -0.211022 0
0.935801 -0.255182 0
0.987096 -0.298936 0
1.021628 -0.337921 0
1.054641 -0.361709 0
1.083448 -0.373767 0
1.107017 -0.373867 0
1.123993 -0.353582 0
1.137552 -0.320830 0
1.149187 -0.291111 0
1.158446 -0.264981 0
1.166564 -0.242462 0
1.177096 -0.220293 0
1.196423 -0.185737 0
1.218466 -0.125366 0
1.231203 -0.041537 0
1.230038 0.048200 0
1.207086 0.121716 0
1.166715 0.162812 0
1.124502 0.161316 0
1.079600 0.125857 0
1.007291 0.122629 0
0.893257 0.165532 0
0.790519 0.202556 0
0.733766 0.206729 0
0.743386 0.157234 0
0.790780 0.091257 0
0.795123 0.066468 0
1.000000 -0.021168 0
1.001695 -0.073541 0
1.004188 -0.142710 0
1.005825 -0.230196 0
1.040331 -0.332414 0
1.073641 -0.453698 0
1.234725 -0.765226 0
1.615075 -0.739647 0
1.500353 -0.339579 0
1.380697 -0.141115 0
1.339388 -0.020057 0
1.346431 0.080798 0
1.353502 0.149305 0
1.426441 0.214871 0
1.564149 0.347845 0
1.612250 0.519951 0
1.533101 0.643956 0
1.378595 0.708615 0
1.179626 0.786700 0
1.040390 0.782543 0
1.052289 0.633854 0
0.843701 0.645940 0
0.700698 0.578996 0
0.685556 0.170319 0
0.668113 -0.266759 0
0.631264 -0.624897 0
0.586178 -0.902518 0
0.607016 -0.998818 0
0.645039 -0.926330 0
0.608684 -0.838807 0
0.610089 -0.701423 0
0.681594 -0.454890 0
0.772203 -0.169084 0
0.849872 0.068474 0
0.906323 0.231513 0
0.913261 0.364728 0
0.886556 0.495951 0
0.874561 0.541806 0
0.956513 0.455597 0
1.010341 0.272157 0
0.857980 0.102814 0
0.655690 0.021289 0
0.524258 -0.054845 0
0.474824 -0.131512 0
0.483924 -0.131724 0
0.522745 -0.058391 0
0.564812 0.029260 0
0.597954 0.095329 0
0.634007 0.126821 0
0.683095 0.120795 0
0.742882 0.074939 0
0.797767 0.090537 0
0.852239 0.215117 0
0.872954 0.231331 0
0.782052 0.007186 0
0.686779 -0.281512 0
0.762601 -0.333076 0
0.905131 -0.132400 0
0.954031 0.109522 0
0.834287 0.349079 0
0.559709 0.600816 0
0.365420 0.755486 0
0.345266 0.703393 0
0.420237 0.519750 0
0.499259 0.337578 0
0.565122 0.202091 0
0.619545 0.105968 0
0.662222 0.040270 0
0.685564 -0.013907 0
0.703299 -0.072195 0
0.742476 -0.134210 0
0.812511 -0.205558 0
0.894228 -0.277277 0
0.965995 -0.317657 0
1.018432 -0.332944 0
1.049777 -0.354765 0
1.055648 -0.390864 0
1.068712 -0.415593 0
1.097820 -0.408333 0
1.136299 -0.375455 0
1.171102 -0.335309 0
1.198001 -0.301752 0
1.206592 -0.274603 0
1.195616 -0.250817 0
1.171731 -0.231859 0
1.141089 -0.219662 0
1.126011 -0.197635 0
1.125892 -0.142537 0
1.113594 -0.059044 0
1.083736 0.040958 0
1.047260 0.141108 0
1.012573 0.207970 0
0.980067 0.230105 0
0.928805 0.233327 0
0.843503 0.241865 0
0.771376 0.247865 0
0.735747 0.233459 0
0.743004 0.181316 0
0.798682 0.106095 0
0.845853 0.065053 0
0.849393 0.061963 0
1.000000 -0.021308 0
0.996783 -0.074142 0
0.995644 -0.136857 0
0.982596 -0.236934 0
0.984485 -0.347539 0
0.961092 -0.553337 0
1.112636 -1.036445 0
0.780644 -0.677736 0
-0.001799 0.000000 0
-0.002372 0.000000 0
0.505678 0.005676 0
0.520061 0.059194 0
0.427968 0.079796 0
0.596195 0.032854 0
1.155137 0.156088 0
1.418865 0.468772 0
1.435492 0.735757 0
1.366868 0.868456 0
1.251798 0.888635 0
1.182001 0.792512 0
1.045111 0.852472 0
0.787270 0.910981 0
0.786639 0.579935 0
0.787393 0.139657 0
0.728187 -0.225123 0
0.659259 -0.560719 0
0.585912 -0.856682 0
0.536801 -1.020096 0
0.565804 -0.952252 0
0.574405 -0.802831 0
0.544389 -0.694796 0
0.580991 -0.527932 0
0.658032 -0.281282 0
0.716538 -0.009763 0
0.733756 0.249617 0
0.726559 0.455037 0
0.765979 0.513556 0
0.902156 0.390362 0
0.971336 0.266924 0
0.896483 0.306391 0
0.728568 0.333976 0
0.580333 0.217211 0
0.477589 0.062209 0
0.387137 -0.060791 0
0.317887 -0.113910 0
0.302083 -0.087045 0
0.329033 -0.021620 0
0.383754 0.033458 0
0.448463 0.055531 0
0.517397 0.052424 0
0.568076 0.059725 0
0.578249 0.093122 0
0.631300 0.125536 0
0.761173 0.151837 0
0.840680 0.096886 0
0.741769 -0.144224 0
0.514268 -0.345113 0
0.441470 -0.204625 0
0.424598 0.168516 0
0.336092 0.524300 0
0.246200 0.737790 0
0.270717 0.761304 0
0.380318 0.629954 0
0.500906 0.447229 0
0.602147 0.282280 0
0.686535 0.145637 0
0.746901 0.047798 0
0.788630 -0.010378 0
0.820872 -0.055901 0
0.858723 -0.124250 0
0.909534 -0.217632 0
0.968867 -0.291091 0
1.016655 -0.322522 0
1.048447 -0.335227 0
1.072783 -0.338965 0
1.081751 -0.336153 0
1.048203 -0.356856 0
0.946989 -0.403882 0
0.851613 -0.441355 0
0.849878 -0.447150 0
0.932292 -0.415284 0
1.038736 -0.356322 0
1.107617 -0.288728 0
1.127860 -0.230121 0
1.127899 -0.187935 0
1.094310 -0.174575 0
1.031985 -0.170542 0
0.960325 -0.112950 0
0.893329 0.000617 0
0.838210 0.114533 0
0.814942 0.192878 0
0.822438 0.230002 0
0.830303 0.245082 0
0.812854 0.262420 0
0.773741 0.280056 0
0.735020 0.273286 0
0.724672 0.230927 0
0.764929 0.143793 0
0.841264 0.054383 0
0.863186 0.040544 0
0.861021 0.059859 0
1.000000 -0.017942 0
0.998713 -0.069172 0
0.974576 -0.128517 0
0.976723 -0.219030 0
0.904531 -0.310903 0
0.906004 -0.581843 0
0.589175 -0.680611 0
0.000000 -0.000090 0
-0.642719 0.267839 0
-0.539277 0.000000 0
0.000000 0.000000 0
0.003016 0.155847 0
0.049443 0.073171 0
0.070711 -0.512297 0
0.407142 -0.474825 0
0.992543 0.239597 0
1.087313 0.695954 0
1.146567 0.892311 0
1.149443 0.971568 0
1.088827 0.989230 0
0.930512 1.028586 0
0.968849 0.904413 0
0.976653 0.578873 0
0.892752 0.228771 0
0.839605 -0.138624 0
0.782521 -0.482622 0
0.675908 -0.780061 0
0.552587 -0.978711 0
0.499466 -0.963934 0
0.528801 -0.817392 0
0.527512 -0.708009 0
0.554235 -0.568534 0
0.639777 -0.304632 0
0.716109 -0.007250 0
0.778848 0.221493 0
0.871418 0.332505 0
1.004098 0.320353 0
1.030841 0.336448 0
0.882905 0.461270 0
0.686794 0.514926 0
0.573942 0.418964 0
0.500184 0.272268 0
0.426520 0.138351 0
0.339707 0.028190 0
0.248511 -0.046670 0
0.187038 -0.069536 0
0.179146 -0.052410 0
0.219784 -0.024101 0
0.284820 -0.006822 0
0.352150 0.001182 0
0.411636 0.014088 0
0.483110 0.027314 0
0.578770 0.032194 0
0.687493 0.021952 0
0.801639 0.026590 0
0.805988 0.044901 0
0.593153 -0.032775 0
0.318282 -0.042729 0
0.167216 0.214901 0
0.145613 0.527477 0
0.242549 0.666191 0
0.420705 0.621369 0
0.614205 0.473205 0
0.774893 0.297922 0
0.913973 0.151949 0
1.027149 0.057336 0
1.094284 0.003874 0
1.117714 -0.033701 0
1.122185 -0.084000 0
1.128297 -0.160858 0
1.135051 -0.244353 0
1.137029 -0.312678 0
1.149187 -0.356858 0
1.171485 -0.373786 0
1.191521 -0.366247 0
1.201596 -0.330185 0
1.189916 -0.256104 0
1.113509 -0.219004 0
0.976543 -0.311222 0
0.836381 -0.456135 0
0.783664 -0.524168 0
0.857200 -0.477078 0
0.961780 -0.363728 0
1.007981 -0.271099 0
1.000777 -0.198310 0
0.961180 -0.123749 0
0.886751 -0.063651 0
0.796516 -0.003883 0
0.736207 0.063070 0
0.725682 0.119344 0
0.753033 0.156879 0
0.787652 0.192609 0
0.796959 0.239687 0
0.772350 0.289887 0
0.731190 0.319698 0
0.705668 0.296933 0
0.731446 0.203548 0
0.811493 0.064723 0
0.868512 0.007837 0
0.833169 0.045295 0
0.821796 0.067944 0
1.000000 -0.020010 0
0.992613 -0.048702 0
0.972444 -0.114859 0
0.946624 -0.166880 0
0.881557 -0.276812 0
0.804341 -0.237973 0
0.445634 -0.210099 0
0.311431 -0.168224 0
0.000000 0.000000 0
0.000000 0.000000 0
0.000000 0.000000 0
0.000000 0.000000 0
0.148756 0.005010 0
0.051275 -0.324844 0
-0.306958 -0.765742 0
0.466417 -0.211397 0
0.557113 0.581736 0
0.728367 0.806328 0
0.823076 0.946375 0
0.886539 1.011443 0
0.898455 0.972451 0
0.931276 0.864842 0
0.892780 0.656032 0
0.898009 0.276706 0
0.912661 -0.114891 0
0.910795 -0.397022 0
0.869806 -0.626749 0
0.738683 -0.843654 0
0.586189 -0.928467 0
0.580435 -0.830877 0
0.620698 -0.720231 0
0.631219 -0.640198 0
0.708353 -0.443156 0
0.837366 -0.148834 0
0.943973 0.094308 0
1.006043 0.229787 0
0.983774 0.354133 0
0.839647 0.511555 0
0.673374 0.610971 0
0.564819 0.615354 0
0.497847 0.520587 0
0.449954 0.364633 0
0.394487 0.222687 0
0.326174 0.117219 0
0.247233 0.038759 0
0.179095 -0.017679 0
0.148094 -0.054365 0
0.163260 -0.072215 0
0.221331 -0.076833 0
0.300849 -0.074392 0
0.388841 -0.071235 0
0.476594 -0.074010 0
0.561843 -0.078845 0
0.650741 -0.071032 0
0.730707 -0.021609 0
0.792876 0.064264 0
0.785983 0.142594 0
0.628408 0.221313 0
0.502965 0.341185 0
0.544173 0.448968 0
0.704396 0.462699 0
0.910754 0.389648 0
1.115398 0.275767 0
1.282674 0.147462 0