# vtk DataFile Version 2.0
generated by CFD-lab course output (written by Tobias Neckel) 
ASCII

DATASET STRUCTURED_GRID
DIMENSIONS  101 21 1 
POINTS 2121 float

0.000000 0.000000 0
0.100000 0.000000 0
0.200000 0.000000 0
0.300000 0.000000 0
0.400000 0.000000 0
0.500000 0.000000 0
0.600000 0.000000 0
0.700000 0.000000 0
0.800000 0.000000 0
0.900000 0.000000 0
1.000000 0.000000 0
1.100000 0.000000 0
1.200000 0.000000 0
1.300000 0.000000 0
1.400000 0.000000 0
1.500000 0.000000 0
1.600000 0.000000 0
1.700000 0.000000 0
1.800000 0.000000 0
1.900000 0.000000 0
2.000000 0.000000 0
2.100000 0.000000 0
2.200000 0.000000 0
2.300000 0.000000 0
2.400000 0.000000 0
2.500000 0.000000 0
2.600000 0.000000 0
2.700000 0.000000 0
2.800000 0.000000 0
2.900000 0.000000 0
3.000000 0.000000 0
3.100000 0.000000 0
3.200000 0.000000 0
3.300000 0.000000 0
3.400000 0.000000 0
3.500000 0.000000 0
3.600000 0.000000 0
3.700000 0.000000 0
3.800000 0.000000 0
3.900000 0.000000 0
4.000000 0.000000 0
4.100000 0.000000 0
4.200000 0.000000 0
4.300000 0.000000 0
4.400000 0.000000 0
4.500000 0.000000 0
4.600000 0.000000 0
4.700000 0.000000 0
4.800000 0.000000 0
4.900000 0.000000 0
5.000000 0.000000 0
5.100000 0.000000 0
5.200000 0.000000 0
5.300000 0.000000 0
5.400000 0.000000 0
5.500000 0.000000 0
5.600000 0.000000 0
5.700000 0.000000 0
5.800000 0.000000 0
5.900000 0.000000 0
6.000000 0.000000 0
6.100000 0.000000 0
6.200000 0.000000 0
6.300000 0.000000 0
6.400000 0.000000 0
6.500000 0.000000 0
6.600000 0.000000 0
6.700000 0.000000 0
6.800000 0.000000 0
6.900000 0.000000 0
7.000000 0.000000 0
7.100000 0.000000 0
7.200000 0.000000 0
7.300000 0.000000 0
7.400000 0.000000 0
7.500000 0.000000 0
7.600000 0.000000 0
7.700000 0.000000 0
7.800000 0.000000 0
7.900000 0.000000 0
8.000000 0.000000 0
8.100000 0.000000 0
8.200000 0.000000 0
8.300000 0.000000 0
8.400000 0.000000 0
8.500000 0.000000 0
8.600000 0.000000 0
8.700000 0.000000 0
8.800000 0.000000 0
8.900000 0.000000 0
9.000000 0.000000 0
9.100000 0.000000 0
9.200000 0.000000 0
9.300000 0.000000 0
9.400000 0.000000 0
9.500000 0.000000 0
9.600000 0.000000 0
9.700000 0.000000 0
9.800000 0.000000 0
9.900000 0.000000 0
10.000000 0.000000 0
0.000000 0.100000 0
0.100000 0.100000 0
0.200000 0.100000 0
0.300000 0.100000 0
0.400000 0.100000 0
0.500000 0.100000 0
0.600000 0.100000 0
0.700000 0.100000 0
0.800000 0.100000 0
0.900000 0.100000 0
1.000000 0.100000 0
1.100000 0.100000 0
1.200000 0.100000 0
1.300000 0.100000 0
1.400000 0.100000 0
1.500000 0.100000 0
1.600000 0.100000 0
1.700000 0.100000 0
1.800000 0.100000 0
1.900000 0.100000 0
2.000000 0.100000 0
2.100000 0.100000 0
2.200000 0.100000 0
2.300000 0.100000 0
2.400000 0.100000 0
2.500000 0.100000 0
2.600000 0.100000 0
2.700000 0.100000 0
2.800000 0.100000 0
2.900000 0.100000 0
3.000000 0.100000 0
3.100000 0.100000 0
3.200000 0.100000 0
3.300000 0.100000 0
3.400000 0.100000 0
3.500000 0.100000 0
3.600000 0.100000 0
3.700000 0.100000 0
3.800000 0.100000 0
3.900000 0.100000 0
4.000000 0.100000 0
4.100000 0.100000 0
4.200000 0.100000 0
4.300000 0.100000 0
4.400000 0.100000 0
4.500000 0.100000 0
4.600000 0.100000 0
4.700000 0.100000 0
4.800000 0.100000 0
4.900000 0.100000 0
5.000000 0.100000 0
5.100000 0.100000 0
5.200000 0.100000 0
5.300000 0.100000 0
5.400000 0.100000 0
5.500000 0.100000 0
5.600000 0.100000 0
5.700000 0.100000 0
5.800000 0.100000 0
5.900000 0.100000 0
6.000000 0.100000 0
6.100000 0.100000 0
6.200000 0.100000 0
6.300000 0.100000 0
6.400000 0.100000 0
6.500000 0.100000 0
6.600000 0.100000 0
6.700000 0.100000 0
6.800000 0.100000 0
6.900000 0.100000 0
7.000000 0.100000 0
7.100000 0.100000 0
7.200000 0.100000 0
7.300000 0.100000 0
7.400000 0.100000 0
7.500000 0.100000 0
7.600000 0.100000 0
7.700000 0.100000 0
7.800000 0.100000 0
7.900000 0.100000 0
8.000000 0.100000 0
8.100000 0.100000 0
8.200000 0.100000 0
8.300000 0.100000 0
8.400000 0.100000 0
8.500000 0.100000 0
8.600000 0.100000 0
8.700000 0.100000 0
8.800000 0.100000 0
8.900000 0.100000 0
9.000000 0.100000 0
9.100000 0.100000 0
9.200000 0.100000 0
9.300000 0.100000 0
9.400000 0.100000 0
9.500000 0.100000 0
9.600000 0.100000 0
9.700000 0.100000 0
9.800000 0.100000 0
9.900000 0.100000 0
10.000000 0.100000 0
0.000000 0.200000 0
0.100000 0.200000 0
0.200000 0.200000 0
0.300000 0.200000 0
0.400000 0.200000 0
0.500000 0.200000 0
0.600000 0.200000 0
0.700000 0.200000 0
0.800000 0.200000 0
0.900000 0.200000 0
1.000000 0.200000 0
1.100000 0.200000 0
1.200000 0.200000 0
1.300000 0.200000 0
1.400000 0.200000 0
1.500000 0.200000 0
1.600000 0.200000 0
1.700000 0.200000 0
1.800000 0.200000 0
1.900000 0.200000 0
2.000000 0.200000 0
2.100000 0.200000 0
2.200000 0.200000 0
2.300000 0.200000 0
2.400000 0.200000 0
2.500000 0.200000 0
2.600000 0.200000 0
2.700000 0.200000 0
2.800000 0.200000 0
2.900000 0.200000 0
3.000000 0.200000 0
3.100000 0.200000 0
3.200000 0.200000 0
3.300000 0.200000 0
3.400000 0.200000 0
3.500000 0.200000 0
3.600000 0.200000 0
3.700000 0.200000 0
3.800000 0.200000 0
3.900000 0.200000 0
4.000000 0.200000 0
4.100000 0.200000 0
4.200000 0.200000 0
4.300000 0.200000 0
4.400000 0.200000 0
4.500000 0.200000 0
4.600000 0.200000 0
4.700000 0.200000 0
4.800000 0.200000 0
4.900000 0.200000 0
5.000000 0.200000 0
5.100000 0.200000 0
5.200000 0.200000 0
5.300000 0.200000 0
5.400000 0.200000 0
5.500000 0.200000 0
5.600000 0.200000 0
5.700000 0.200000 0
5.800000 0.200000 0
5.900000 0.200000 0
6.000000 0.200000 0
6.100000 0.200000 0
6.200000 0.200000 0
6.300000 0.200000 0
6.400000 0.200000 0
6.500000 0.200000 0
6.600000 0.200000 0
6.700000 0.200000 0
6.800000 0.200000 0
6.900000 0.200000 0
7.000000 0.200000 0
7.100000 0.200000 0
7.200000 0.200000 0
7.300000 0.200000 0
7.400000 0.200000 0
7.500000 0.200000 0
7.600000 0.200000 0
7.700000 0.200000 0
7.800000 0.200000 0
7.900000 0.200000 0
8.000000 0.200000 0
8.100000 0.200000 0
8.200000 0.200000 0
8.300000 0.200000 0
8.400000 0.200000 0
8.500000 0.200000 0
8.600000 0.200000 0
8.700000 0.200000 0
8.800000 0.200000 0
8.900000 0.200000 0
9.000000 0.200000 0
9.100000 0.200000 0
9.200000 0.200000 0
9.300000 0.200000 0
9.400000 0.200000 0
9.500000 0.200000 0
9.600000 0.200000 0
9.700000 0.200000 0
9.800000 0.200000 0
9.900000 0.200000 0
10.000000 0.200000 0
0.000000 0.300000 0
0.100000 0.300000 0
0.200000 0.300000 0
0.300000 0.300000 0
0.400000 0.300000 0
0.500000 0.300000 0
0.600000 0.300000 0
0.700000 0.300000 0
0.800000 0.300000 0
0.900000 0.300000 0
1.000000 0.300000 0
1.100000 0.300000 0
1.200000 0.300000 0
1.300000 0.300000 0
1.400000 0.300000 0
1.500000 0.300000 0
1.600000 0.300000 0
1.700000 0.300000 0
1.800000 0.300000 0
1.900000 0.300000 0
2.000000 0.300000 0
2.100000 0.300000 0
2.200000 0.300000 0
2.300000 0.300000 0
2.400000 0.300000 0
2.500000 0.300000 0
2.600000 0.300000 0
2.700000 0.300000 0
2.800000 0.300000 0
2.900000 0.300000 0
3.000000 0.300000 0
3.100000 0.300000 0
3.200000 0.300000 0
3.300000 0.300000 0
3.400000 0.300000 0
3.500000 0.300000 0
3.600000 0.300000 0
3.700000 0.300000 0
3.800000 0.300000 0
3.900000 0.300000 0
4.000000 0.300000 0
4.100000 0.300000 0
4.200000 0.300000 0
4.300000 0.300000 0
4.400000 0.300000 0
4.500000 0.300000 0
4.600000 0.300000 0
4.700000 0.300000 0
4.800000 0.300000 0
4.900000 0.300000 0
5.000000 0.300000 0
5.100000 0.300000 0
5.200000 0.300000 0
5.300000 0.300000 0
5.400000 0.300000 0
5.500000 0.300000 0
5.600000 0.300000 0
5.700000 0.300000 0
5.800000 0.300000 0
5.900000 0.300000 0
6.000000 0.300000 0
6.100000 0.300000 0
6.200000 0.300000 0
6.300000 0.300000 0
6.400000 0.300000 0
6.500000 0.300000 0
6.600000 0.300000 0
6.700000 0.300000 0
6.800000 0.300000 0
6.900000 0.300000 0
7.000000 0.300000 0
7.100000 0.300000 0
7.200000 0.300000 0
7.300000 0.300000 0
7.400000 0.300000 0
7.500000 0.300000 0
7.600000 0.300000 0
7.700000 0.300000 0
7.800000 0.300000 0
7.900000 0.300000 0
8.000000 0.300000 0
8.100000 0.300000 0
8.200000 0.300000 0
8.300000 0.300000 0
8.400000 0.300000 0
8.500000 0.300000 0
8.600000 0.300000 0
8.700000 0.300000 0
8.800000 0.300000 0
8.900000 0.300000 0
9.000000 0.300000 0
9.100000 0.300000 0
9.200000 0.300000 0
9.300000 0.300000 0
9.400000 0.300000 0
9.500000 0.300000 0
9.600000 0.300000 0
9.700000 0.300000 0
9.800000 0.300000 0
9.900000 0.300000 0
10.000000 0.300000 0
0.000000 0.400000 0
0.100000 0.400000 0
0.200000 0.400000 0
0.300000 0.400000 0
0.400000 0.400000 0
0.500000 0.400000 0
0.600000 0.400000 0
0.700000 0.400000 0
0.800000 0.400000 0
0.900000 0.400000 0
1.000000 0.400000 0
1.100000 0.400000 0
1.200000 0.400000 0
1.300000 0.400000 0
1.400000 0.400000 0
1.500000 0.400000 0
1.600000 0.400000 0
1.700000 0.400000 0
1.800000 0.400000 0
1.900000 0.400000 0
2.000000 0.400000 0
2.100000 0.400000 0
2.200000 0.400000 0
2.300000 0.400000 0
2.400000 0.400000 0
2.500000 0.400000 0
2.600000 0.400000 0
2.700000 0.400000 0
2.800000 0.400000 0
2.900000 0.400000 0
3.000000 0.400000 0
3.100000 0.400000 0
3.200000 0.400000 0
3.300000 0.400000 0
3.400000 0.400000 0
3.500000 0.400000 0
3.600000 0.400000 0
3.700000 0.400000 0
3.800000 0.400000 0
3.900000 0.400000 0
4.000000 0.400000 0
4.100000 0.400000 0
4.200000 0.400000 0
4.300000 0.400000 0
4.400000 0.400000 0
4.500000 0.400000 0
4.600000 0.400000 0
4.700000 0.400000 0
4.800000 0.400000 0
4.900000 0.400000 0
5.000000 0.400000 0
5.100000 0.400000 0
5.200000 0.400000 0
5.300000 0.400000 0
5.400000 0.400000 0
5.500000 0.400000 0
5.600000 0.400000 0
5.700000 0.400000 0
5.800000 0.400000 0
5.900000 0.400000 0
6.000000 0.400000 0
6.100000 0.400000 0
6.200000 0.400000 0
6.300000 0.400000 0
6.400000 0.400000 0
6.500000 0.400000 0
6.600000 0.400000 0
6.700000 0.400000 0
6.800000 0.400000 0
6.900000 0.400000 0
7.000000 0.400000 0
7.100000 0.400000 0
7.200000 0.400000 0
7.300000 0.400000 0
7.400000 0.400000 0
7.500000 0.400000 0
7.600000 0.400000 0
7.700000 0.400000 0
7.800000 0.400000 0
7.900000 0.400000 0
8.000000 0.400000 0
8.100000 0.400000 0
8.200000 0.400000 0
8.300000 0.400000 0
8.400000 0.400000 0
8.500000 0.400000 0
8.600000 0.400000 0
[...]
POINT_DATA 2121 

VECTORS velocity float
0.500000 0.000000 0
0.000038 0.000000 0
0.000117 0.000000 0
0.000230 0.000000 0
0.000351 0.000000 0
0.000454 0.000000 0
0.000502 0.000000 0
0.000458 0.000000 0
0.000295 0.000000 0
-0.000015 0.000000 0
-0.000494 0.000000 0
-0.001163 0.000000 0
-0.002057 0.000000 0
-0.003220 0.000000 0
-0.004626 0.000000 0
-0.006135 0.000000 0
-0.007611 0.000000 0
-0.008618 0.000000 0
-0.008107 0.000000 0
-0.005882 0.000000 0
-0.002402 0.000000 0
0.001495 0.000000 0
0.005003 0.000000 0
0.007430 0.000000 0
0.008832 0.000000 0
0.009552 0.000000 0
0.009530 0.000000 0
0.008613 0.000000 0
0.007027 0.000000 0
0.006589 0.000000 0
0.008238 0.000000 0
0.007654 0.000000 0
0.001848 0.000000 0
0.000092 0.000000 0
0.000846 0.000000 0
0.001139 0.000000 0
-0.000017 0.000000 0
-0.000839 0.000000 0
-0.001001 0.000000 0
-0.001016 0.000000 0
-0.001094 0.000000 0
-0.001176 0.000000 0
-0.001210 0.000000 0
-0.001200 0.000000 0
-0.001167 0.000000 0
-0.001126 0.000000 0
-0.001084 0.000000 0
-0.001043 0.000000 0
-0.001002 0.000000 0
-0.000962 0.000000 0
-0.000922 0.000000 0
-0.000878 0.000000 0
-0.000835 0.000000 0
-0.000797 0.000000 0
-0.000758 0.000000 0
-0.000712 0.000000 0
-0.000667 0.000000 0
-0.000633 0.000000 0
-0.000604 0.000000 0
-0.000566 0.000000 0
-0.000518 0.000000 0
-0.000480 0.000000 0
-0.000465 0.000000 0
-0.000458 0.000000 0
-0.000435 0.000000 0
-0.000387 0.000000 0
-0.000334 0.000000 0
-0.000311 0.000000 0
-0.000330 0.000000 0
-0.000368 0.000000 0
-0.000363 0.000000 0
-0.000338 0.000000 0
-0.000313 0.000000 0
-0.000292 0.000000 0
-0.000276 0.000000 0
-0.000264 0.000000 0
-0.000254 0.000000 0
-0.000247 0.000000 0
-0.000242 0.000000 0
-0.000238 0.000000 0
-0.000235 0.000000 0
-0.000233 0.000000 0
-0.000231 0.000000 0
-0.000230 0.000000 0
-0.000229 0.000000 0
-0.000228 0.000000 0
-0.000228 0.000000 0
-0.000227 0.000000 0
-0.000227 0.000000 0
-0.000227 0.000000 0
-0.000227 0.000000 0
-0.000227 0.000000 0
-0.000227 0.000000 0
-0.000228 0.000000 0
-0.000228 0.000000 0
-0.000228 0.000000 0
-0.000228 0.000000 0
-0.000229 0.000000 0
-0.000229 0.000000 0
-0.000229 0.000000 0
-0.000230 0.000000 0
1.000000 -0.003154 0
1.006930 -0.009792 0
1.020993 -0.016890 0
1.042435 -0.024106 0
1.071413 -0.030996 0
1.107549 -0.036694 0
1.149253 -0.039912 0
1.193332 -0.039177 0
1.233923 -0.034187 0
1.266583 -0.026458 0
1.289710 -0.018084 0
1.303827 -0.010940 0
1.310961 -0.006808 0
1.315117 -0.007404 0
1.322344 -0.013671 0
1.339078 -0.025470 0
1.371550 -0.041607 0
1.424502 -0.056833 0
1.493345 -0.061778 0
1.561121 -0.050799 0
1.608877 -0.025780 0
1.623116 0.006672 0
1.600954 0.038416 0
1.547962 0.062780 0
1.474273 0.078296 0
1.389718 0.086654 0
1.302571 0.087874 0
1.218953 0.080704 0
1.139785 0.067363 0
1.070132 0.064061 0
1.030194 0.076045 0
0.993384 0.072786 0
0.943192 0.037070 0
0.885979 0.009618 0
0.847341 0.009038 0
0.822534 0.009610 0
0.811149 0.002545 0
0.817421 -0.005195 0
0.825972 -0.007812 0
0.833060 -0.008137 0
0.840309 -0.008401 0
0.848865 -0.008753 0
0.858029 -0.008811 0
0.867035 -0.008547 0
0.875553 -0.008104 0
0.883537 -0.007613 0
0.891035 -0.007139 0
0.898101 -0.006694 0
0.904779 -0.006279 0
0.911091 -0.005894 0
0.917031 -0.005519 0
0.922603 -0.005128 0
0.927827 -0.004754 0
0.932700 -0.004428 0
0.937194 -0.004106 0
0.941306 -0.003738 0
0.945089 -0.003372 0
0.948587 -0.003094 0
0.951767 -0.002874 0
0.954575 -0.002589 0
0.957044 -0.002220 0
0.959299 -0.001913 0
0.961419 -0.001788 0
0.963354 -0.001753 0
0.964984 -0.001604 0
0.966262 -0.001246 0
0.967290 -0.000819 0
0.968266 -0.000595 0
0.969327 -0.000698 0
0.970477 -0.000988 0
0.971474 -0.001096 0
0.972319 -0.000943 0
0.973023 -0.000754 0
0.973606 -0.000593 0
0.974087 -0.000464 0
0.974483 -0.000365 0
0.974810 -0.000287 0
0.975080 -0.000228 0
0.975303 -0.000182 0
0.975488 -0.000146 0
0.975641 -0.000118 0
0.975769 -0.000097 0
0.975876 -0.000079 0
0.975965 -0.000066 0
0.976040 -0.000055 0
0.976103 -0.000046 0
0.976156 -0.000039 0
0.976201 -0.000033 0
0.976240 -0.000029 0
0.976273 -0.000026 0
0.976303 -0.000024 0
0.976330 -0.000022 0
0.976356 -0.000023 0
0.976382 -0.000024 0
0.976411 -0.000030 0
0.976445 -0.000036 0
0.976488 -0.000059 0
0.976550 -0.000081 0
0.976639 -0.000194 0
0.976789 -0.000384 0
0.977001 -0.000459 0
1.000000 -0.006888 0
1.007012 -0.020934 0
1.021419 -0.035471 0
1.043499 -0.050388 0
1.074133 -0.065085 0
1.113845 -0.077812 0
1.161624 -0.085758 0
1.215339 -0.084647 0
1.263809 -0.073230 0
1.300506 -0.055768 0
1.324590 -0.037228 0
1.337390 -0.021237 0
1.340467 -0.011277 0
1.337844 -0.011374 0
1.337341 -0.023954 0
1.346986 -0.049199 0
1.376864 -0.085420 0
1.435741 -0.121792 0
1.519823 -0.136616 0
1.607369 -0.115531 0
1.673934 -0.061994 0
1.698764 0.007924 0
1.677434 0.075155 0
1.619743 0.126682 0
1.539517 0.158244 0
1.448436 0.171703 0
1.352130 0.170765 0
1.255973 0.162788 0
1.167822 0.148824 0
1.090329 0.109594 0
1.004499 0.076751 0
0.937649 0.087005 0
0.911725 0.107410 0
0.909356 0.095856 0
0.935537 0.063450 0
0.944348 0.036199 0
0.932194 0.005119 0
0.901628 -0.014816 0
0.875080 -0.015632 0
0.861336 -0.014330 0
0.860793 -0.015797 0
0.869125 -0.017713 0
0.879623 -0.018162 0
0.889524 -0.017516 0
0.898431 -0.016495 0
0.906593 -0.015474 0
0.914263 -0.014557 0
0.921580 -0.013737 0
0.928596 -0.012983 0
0.935302 -0.012245 0
0.941670 -0.011506 0
0.947688 -0.010791 0
0.953348 -0.010092 0
0.958621 -0.009362 0
0.963478 -0.008602 0
0.967948 -0.007892 0
0.972084 -0.007278 0
0.975862 -0.006675 0
0.979219 -0.005985 0
0.982186 -0.005275 0
0.984902 -0.004722 0
0.987450 -0.004374 0
0.989755 -0.004054 0
0.991673 -0.003564 0
0.993192 -0.002908 0
0.994478 -0.002305 0
0.995786 -0.002003 0
0.997230 -0.002037 0
0.998683 -0.002211 0
0.999847 -0.002148 0
1.000651 -0.001843 0
1.001307 -0.001550 0
1.001884 -0.001288 0
1.002395 -0.001065 0
1.002845 -0.000879 0
1.003236 -0.000725 0
1.003574 -0.000598 0
1.003865 -0.000494 0
1.004113 -0.000410 0
1.004325 -0.000340 0
1.004504 -0.000283 0
1.004656 -0.000236 0
1.004785 -0.000198 0
1.004893 -0.000166 0
1.004985 -0.000140 0
1.005063 -0.000118 0
1.005128 -0.000100 0
1.005184 -0.000086 0
1.005232 -0.000074 0
1.005274 -0.000065 0
1.005310 -0.000059 0
1.005342 -0.000055 0
1.005372 -0.000054 0
1.005401 -0.000056 0
1.005431 -0.000064 0
1.005461 -0.000079 0
1.005502 -0.000107 0
1.005537 -0.000153 0
1.005600 -0.000241 0
1.005588 -0.000364 0
1.005545 -0.000424 0
1.000000 -0.010138 0
1.005445 -0.031178 0
1.018749 -0.053367 0
1.039499 -0.076812 0
1.070376 -0.101333 0
1.113792 -0.124177 0
1.169780 -0.141400 0
1.244390 -0.141356 0
1.307056 -0.119349 0
1.348279 -0.087235 0
1.371488 -0.054964 0
1.380878 -0.026815 0
1.375666 -0.007260 0
1.358660 -0.004276 0
1.342088 -0.022813 0
1.333293 -0.064993 0
1.351479 -0.130362 0
1.414158 -0.199792 0
1.515461 -0.233406 0
1.626200 -0.204912 0
1.721846 -0.117175 0
1.767679 0.003172 0
1.755532 0.117437 0
1.692177 0.200696 0
1.595312 0.249602 0
1.490720 0.274041 0
1.392316 0.280337 0
1.296992 0.265012 0
1.204135 0.233008 0
1.117581 0.227385 0
1.018265 0.228726 0
0.958273 0.165562 0
0.967173 0.065364 0
0.982165 -0.014191 0
0.948200 -0.025952 0
0.921549 0.012955 0
0.903041 0.045267 0
0.876861 0.051921 0
0.854651 0.032482 0
0.843972 0.006153 0
0.848222 -0.016187 0
0.863933 -0.027579 0
0.877600 -0.029207 0
0.887871 -0.027352 0
0.896338 -0.025170 0
0.904156 -0.023443 0
0.911791 -0.022124 0
0.919340 -0.021024 0
0.926745 -0.019998 0
0.933905 -0.018967 0
0.940735 -0.017902 0
0.947187 -0.016804 0
0.953207 -0.015686 0
0.958762 -0.014556 0
0.963872 -0.013432 0
0.968585 -0.012343 0
0.972875 -0.011285 0
0.976692 -0.010228 0
0.980075 -0.009197 0
0.983144 -0.008271 0
0.985987 -0.007483 0
0.988537 -0.006766 0
0.990675 -0.006011 0
0.992396 -0.005190 0
0.993888 -0.004408 0
0.995372 -0.003840 0
0.996957 -0.003570 0
0.998490 -0.003493 0
0.999717 -0.003316 0
1.000551 -0.002956 0
1.001273 -0.002556 0
1.001906 -0.002176 0
1.002465 -0.001843 0
1.002957 -0.001554 0
1.003387 -0.001306 0
1.003761 -0.001095 0
1.004084 -0.000917 0
1.004362 -0.000768 0
1.004599 -0.000642 0
1.004802 -0.000538 0
1.004973 -0.000451 0
1.005119 -0.000378 0
1.005242 -0.000317 0
1.005346 -0.000267 0
1.005434 -0.000225 0
1.005509 -0.000190 0
1.005572 -0.000162 0
1.005626 -0.000138 0
1.005671 -0.000119 0
1.005711 -0.000104 0
1.005745 -0.000093 0
1.005774 -0.000086 0
1.005801 -0.000082 0
1.005826 -0.000084 0
1.005850 -0.000092 0
1.005872 -0.000108 0
1.005895 -0.000136 0
1.005913 -0.000180 0
1.005926 -0.000245 0
1.005905 -0.000330 0
1.005854 -0.000375 0
1.000000 -0.012308 0
1.001566 -0.039653 0
1.014406 -0.069517 0
1.031353 -0.102007 0
1.060066 -0.139371 0
1.105464 -0.177210 0
1.170032 -0.216350 0
1.295509 -0.221918 0
1.378413 -0.177115 0
1.418281 -0.120196 0
1.434602 -0.069824 0
1.439887 -0.025412 0
1.423317 0.010942 0
1.380334 0.022205 0
1.339720 0.001414 0
1.290336 -0.058590 0
1.263309 -0.166286 0
1.306243 -0.285775 0
1.410948 -0.348659 0
1.524473 -0.321918 0
1.658719 -0.203475 0
1.737526 -0.025763 0
1.758681 0.150657 0
1.729188 0.286901 0
1.646171 0.359701 0
1.525260 0.374698 0
1.392716 0.364493 0
1.275012 0.350969 0
1.195381 0.328235 0
1.159492 0.295464 0
1.138043 0.236060 0
1.108602 0.138099 0
1.047991 0.083519 0
0.979042 0.114831 0
0.906558 0.124068 0
0.877977 0.081360 0
0.881638 0.049810 0
0.904083 0.033576 0
0.926236 0.017260 0
0.937092 -0.007898 0
0.930529 -0.035756 0
0.911312 -0.047087 0
0.898041 -0.042098 0
0.893548 -0.036253 0
0.895405 -0.032776 0
0.900952 -0.030924 0
0.908339 -0.029738 0
0.916457 -0.028689 0
0.924676 -0.027545 0
0.932658 -0.026233 0
0.940242 -0.024786 0
0.947328 -0.023261 0
0.953836 -0.021665 0
0.959755 -0.020025 0
0.965149 -0.018424 0
0.970052 -0.016894 0
0.974423 -0.015384 0
0.978250 -0.013873 0
0.981642 -0.012437 0
0.984742 -0.011186 0
0.987545 -0.010114 0
0.989934 -0.009062 0
0.991845 -0.007913 0
0.993429 -0.006776 0
0.994956 -0.005884 0
0.996570 -0.005374 0
0.998191 -0.005121 0
0.999517 -0.004798 0
1.000463 -0.004273 0
1.001212 -0.003703 0
1.001848 -0.003197 0
1.002406 -0.002742 0
1.002895 -0.002340 0
1.003322 -0.001988 0
1.003695 -0.001684 0
1.004018 -0.001422 0
1.004299 -0.001199 0
1.004540 -0.001010 0
1.004747 -0.000850 0
1.004924 -0.000715 0
1.005075 -0.000601 0
1.005203 -0.000506 0
1.005312 -0.000426 0
1.005405 -0.000359 0
1.005484 -0.000303 0
1.005551 -0.000256 0
1.005607 -0.000218 0
1.005655 -0.000186 0
1.005696 -0.000160 0
1.005731 -0.000139 0
1.005760 -0.000123 0
1.005786 -0.000112 0
1.005808 -0.000106 0
1.005827 -0.000106 0
1.005844 -0.000111 0
1.005857 -0.000125 0
1.005867 -0.000149 0
1.005870 -0.000184 0
1.005863 -0.000233 0
1.005835 -0.000293 0
1.005784 -0.000325 0
1.000000 -0.011681 0
0.999034 -0.045558 0
1.006780 -0.083146 0
1.015444 -0.122464 0
1.039981 -0.175439 0
1.079447 -0.234138 0
1.152991 -0.331439 0
1.387135 -0.349733 0
1.462808 -0.242117 0
1.467688 -0.143420 0
1.455595 -0.076567 0
1.459778 -0.015529 0
1.445105 0.052293 0
1.331713 0.079321 0
1.277682 0.067184 0
1.241917 0.011418 0
1.026690 -0.146269 0
0.964154 -0.347433 0
1.055450 -0.451638 0
1.132056 -0.452684 0
1.328690 -0.330229 0
1.433886 -0.096792 0
1.509866 0.125773 0
1.568259 0.313205 0
1.572567 0.453529 0
1.518343 0.527496 0
1.415246 0.530585 0
1.288038 0.462347 0
1.160825 0.348527 0
1.031532 0.284723 0
0.994724 0.279617 0
0.970168 0.255615 0
0.913641 0.194925 0
0.873448 0.127244 0
0.878334 0.075115 0
0.881695 0.037876 0
0.882674 0.019164 0
0.888452 0.007326 0
0.898767 -0.000525 0
0.905597 0.001863 0
0.900420 0.009596 0
0.884940 0.004912 0
0.876008 -0.011440 0
0.875789 -0.024714 0
0.881587 -0.032572 0
0.890657 -0.036373 0
0.901070 -0.037627 0
0.911628 -0.037360 0
0.921746 -0.036197 0
0.931239 -0.034530 0
0.940021 -0.032570 0
0.947973 -0.030396 0
0.955080 -0.028111 0
0.961481 -0.025867 0
0.967250 -0.023728 0
0.972315 -0.021616 0
0.976654 -0.019482 0
0.980462 -0.017446 0
0.983938 -0.015688 0
0.987068 -0.014173 0
0.989649 -0.012674 0
0.991620 -0.011065 0
0.993259 -0.009505 0
0.994916 -0.008301 0
0.996755 -0.007550 0
0.998412 -0.007076 0
0.999723 -0.006517 0
1.000661 -0.005765 0
1.001375 -0.005012 0
1.001997 -0.004341 0
1.002531 -0.003749 0
1.002995 -0.003223 0
1.003399 -0.002760 0
1.003750 -0.002355 0
1.004057 -0.002003 0
1.004322 -0.001699 0
1.004553 -0.001439 0
1.004752 -0.001216 0
1.004923 -0.001027 0
1.005070 -0.000867 0
1.005197 -0.000731 0
1.005305 -0.000616 0
1.005397 -0.000520 0
1.005475 -0.000439 0
1.005542 -0.000371 0
1.005599 -0.000314 0
1.005647 -0.000267 0
1.005688 -0.000228 0
1.005723 -0.000195 0
1.005752 -0.000169 0
1.005776 -0.000149 0
1.005797 -0.000134 0
1.005814 -0.000124 0
1.005827 -0.000120 0
1.005836 -0.000123 0
1.005842 -0.000132 0
1.005842 -0.000150 0
1.005834 -0.000176 0
1.005816 -0.000210 0
1.005782 -0.000253 0
1.005731 -0.000274 0
1.000000 -0.011321 0
1.000852 -0.046409 0
0.997151 -0.085920 0
0.997091 -0.135203 0
1.008346 -0.203368 0
1.014461 -0.290214 0
1.106546 -0.524034 0
1.423648 -0.531731 0
1.361898 -0.257664 0
1.269970 -0.112981 0
1.222308 -0.061912 0
1.155924 -0.014922 0
1.232372 0.139007 0
1.255459 0.189627 0
0.901827 0.091209 0
0.621113 0.192400 0
0.434109 0.111476 0
0.368872 -0.314537 0
0.350207 -0.516563 0
0.322098 -0.595160 0
0.674619 -0.505307 0
0.894247 -0.206940 0
1.112111 0.016282 0
1.241524 0.224199 0
1.295530 0.409616 0
1.322289 0.532018 0
1.301727 0.594797 0
1.237183 0.605389 0
1.129441 0.584741 0
0.965724 0.461565 0
0.868482 0.297425 0
0.843500 0.219183 0
0.838693 0.180241 0
0.824470 0.150139 0
0.810511 0.115822 0
0.793454 0.077021 0
0.776853 0.043056 0
0.764263 0.017485 0
0.755672 0.000117 0
0.755771 -0.009548 0
0.769538 -0.015096 0
0.794773 -0.022672 0
0.818523 -0.032944 0
0.839311 -0.041829 0
0.858167 -0.047642 0
0.875672 -0.050404 0
0.891833 -0.050707 0
0.906460 -0.049363 0
0.919445 -0.047154 0
0.930854 -0.044506 0
0.940890 -0.041518 0
0.949795 -0.038319 0
0.957706 -0.035172 0
0.964592 -0.032194 0
0.970444 -0.029257 0
0.975443 -0.026296 0
0.979874 -0.023529 0
0.983874 -0.021157 0
0.987274 -0.019042 0
0.989850 -0.016896 0
0.991827 -0.014665 0
0.993740 -0.012672 0
0.995668 -0.011209 0
0.997537 -0.010272 0
0.999178 -0.009380 0
1.000406 -0.008342 0
1.001230 -0.007370 0
1.001871 -0.006451 0
1.002422 -0.005609 0
1.002900 -0.004859 0
1.003309 -0.004196 0
1.003662 -0.003610 0
1.003967 -0.003096 0
1.004233 -0.002647 0
1.004465 -0.002256 0
1.004666 -0.001919 0
1.004842 -0.001629 0
1.004994 -0.001381 0
1.005125 -0.001169 0
1.005239 -0.000989 0
1.005338 -0.000836 0
1.005422 -0.000707 0
1.005495 -0.000597 0
1.005557 -0.000505 0
1.005611 -0.000427 0
1.005656 -0.000362 0
1.005695 -0.000308 0
1.005728 -0.000262 0
1.005755 -0.000224 0
1.005778 -0.000194 0
1.005797 -0.000169 0
1.005811 -0.000150 0
1.005823 -0.000137 0
1.005830 -0.000129 0
1.005833 -0.000127 0
1.005832 -0.000131 0
1.005824 -0.000142 0
1.005809 -0.000159 0
1.005784 -0.000182 0
1.005746 -0.000210 0
1.005695 -0.000224 0
1.000000 -0.012515 0
1.000907 -0.042688 0
0.997731 -0.079380 0
0.969549 -0.133654 0
0.984247 -0.192805 0
0.917681 -0.332334 0
1.002009 -0.740622 0
0.700692 -0.516644 0
0.002708 0.000000 0
0.003016 0.000000 0
0.501063 0.041307 0
0.467267 -0.025594 0
0.549891 -0.047243 0
0.540960 0.409866 0
0.395617 0.701529 0
0.196421 0.479133 0
0.140590 0.105969 0
-0.117293 -0.263534 0
-0.346653 -0.404867 0
-0.319291 -0.777098 0
-0.098117 -0.902380 0
0.229270 -0.534287 0
0.616537 -0.221506 0
0.846335 0.129785 0
0.988066 0.372762 0
1.081230 0.521298 0
1.145954 0.615690 0
1.146525 0.634632 0
1.067215 0.619986 0
1.006901 0.545682 0
0.922725 0.401842 0
0.836824 0.285405 0
0.784503 0.213957 0
0.771337 0.155427 0
0.771988 0.106131 0
0.762447 0.071536 0
0.742532 0.048357 0
0.723548 0.028509 0
0.713694 0.007969 0
0.716682 -0.012001 0
0.732626 -0.029404 0
0.757975 -0.044070 0
0.786354 -0.055975 0
0.814468 -0.064356 0
0.840879 -0.068931 0
0.864836 -0.070036 0
0.886042 -0.068413 0
0.904520 -0.064970 0
0.920320 -0.060589 0
0.933563 -0.055972 0
0.944615 -0.051508 0
0.954016 -0.047211 0
0.962214 -0.042906 0
0.969353 -0.038604 0
0.975449 -0.034577 0
0.980451 -0.031045 0
0.984541 -0.027913 0
0.988020 -0.024845 0
0.991010 -0.021663 0
0.993353 -0.018725 0
0.995318 -0.016563 0
0.997413 -0.014906 0
0.999205 -0.013301 0
1.000603 -0.011810 0
1.001514 -0.010419 0
1.002221 -0.009127 0
1.002765 -0.007982 0
1.003202 -0.006957 0
1.003570 -0.006041 0
1.003882 -0.005228 0
1.004148 -0.004511 0
1.004376 -0.003882 0
1.004574 -0.003332 0
1.004747 -0.002853 0
1.004899 -0.002436 0
1.005032 -0.002077 0
1.005149 -0.001767 0
1.005252 -0.001501 0
1.005343 -0.001273 0
1.005422 -0.001079 0
1.005491 -0.000915 0
1.005551 -0.000775 0
1.005603 -0.000656 0
1.005648 -0.000556 0
1.005687 -0.000471 0
1.005720 -0.000399 0
1.005748 -0.000339 0
1.005772 -0.000288 0
1.005792 -0.000246 0
1.005808 -0.000212 0
1.005821 -0.000183 0
1.005830 -0.000161 0
1.005835 -0.000144 0
1.005837 -0.000132 0
1.005835 -0.000125 0
1.005828 -0.000124 0
1.005814 -0.000128 0
1.005794 -0.000136 0
1.005764 -0.000149 0
1.005724 -0.000165 0
1.005672 -0.000173 0
1.000000 -0.012212 0
1.002197 -0.044123 0
0.983122 -0.054558 0
0.971951 -0.121715 0
0.915407 -0.151497 0
0.886153 -0.307974 0
0.720606 -0.395479 0
0.000000 -0.002962 0
-0.607507 0.136972 0
-0.528450 0.000000 0
0.000000 0.000000 0
0.035193 -0.069865 0
-0.023126 0.065313 0
-0.205603 0.343900 0
0.182418 0.435745 0
0.180725 0.447424 0
0.016016 0.425187 0
-0.307823 0.172703 0
-0.555958 -0.314569 0
-0.300144 -0.843699 0
-0.382882 -1.053871 0
-0.175348 -0.921597 0
0.171655 -0.600786 0
0.517028 -0.147332 0
0.753310 0.174719 0
0.891900 0.374128 0
0.946174 0.529501 0
0.936551 0.684127 0
0.928326 0.724364 0
0.942269 0.606056 0
0.897725 0.467502 0
0.839821 0.357406 0
0.820053 0.245728 0
0.802777 0.162656 0
0.759363 0.124714 0
0.704010 0.106479 0
0.661461 0.081956 0
0.643366 0.046325 0
0.648241 0.006984 0
0.669687 -0.028478 0
0.701116 -0.056386 0
0.737231 -0.076398 0
0.773955 -0.089435 0
0.809031 -0.096351 0
0.841010 -0.098007 0
0.868671 -0.095565 0
0.891853 -0.090389 0
0.911527 -0.083638 0
0.928321 -0.076194 0
0.942263 -0.068800 0
0.953406 -0.061970 0
0.962212 -0.055915 0
0.969766 -0.050507 0
0.976576 -0.045427 0
0.982700 -0.040354 0
0.987459 -0.035386 0
0.990767 -0.031096 0
0.993820 -0.027624 0
0.996450 -0.024374 0
0.998620 -0.021204 0
1.000434 -0.018724 0
1.001742 -0.016558 0
1.002652 -0.014399 0
1.003299 -0.012582 0
1.003748 -0.010998 0
1.004097 -0.009592 0
1.004365 -0.008351 0
1.004572 -0.007256 0
1.004738 -0.006289 0
1.004877 -0.005437 0
1.004994 -0.004691 0
1.005096 -0.004037 0
1.005186 -0.003467 0
1.005266 -0.002972 0
1.005338 -0.002542 0
1.005404 -0.002170 0
1.005463 -0.001850 0
1.005518 -0.001575 0
1.005567 -0.001339 0
1.005611 -0.001138 0
1.005651 -0.000966 0
1.005686 -0.000820 0
1.005717 -0.000695 0
1.005745 -0.000590 0
1.005769 -0.000500 0
1.005789 -0.000424 0
1.005806 -0.000360 0
1.005821 -0.000306 0
1.005833 -0.000261 0
1.005842 -0.000223 0
1.005848 -0.000191 0
1.005851 -0.000166 0
1.005852 -0.000145 0
1.005849 -0.000129 0
1.005842 -0.000118 0
1.005830 -0.000111 0
1.005812 -0.000108 0
1.005787 -0.000109 0
1.005754 -0.000113 0
1.005712 -0.000119 0
1.005660 -0.000121 0
1.000000 -0.014698 0
0.993557 -0.025795 0
0.964255 -0.049132 0
0.968839 -0.065938 0
0.865990 -0.107004 0
0.844469 -0.137532 0
0.506524 0.059602 0
0.368398 0.118032 0
0.000000 0.000000 0
0.000000 0.000000 0
0.000000 0.000000 0
0.000000 0.000000 0
-0.061282 0.202134 0
0.067443 0.204320 0
-0.107542 0.315197 0
-0.314196 0.645532 0
-0.261298 0.594513 0
-0.222183 0.308436 0
-0.286669 -0.412549 0
-0.040509 -0.950178 0
-0.114679 -1.027180 0
-0.060407 -1.088827 0
0.016810 -0.913884 0
0.326011 -0.451873 0
0.538661 -0.002112 0
0.648592 0.328433 0
0.695417 0.571038 0
0.781957 0.652479 0
0.896309 0.614267 0
0.917945 0.576283 0
0.882387 0.504290 0
0.875501 0.363077 0
0.851964 0.251001 0
0.776687 0.216118 0
0.683679 0.204900 0
0.617090 0.169440 0
0.592193 0.109003 0
0.602439 0.041731 0
0.635129 -0.018349 0
0.679624 -0.064874 0
0.727575 -0.096945 0
0.773496 -0.116907 0
0.814246 -0.127773 0
0.849640 -0.131409 0
0.880356 -0.128568 0
0.905211 -0.120877 0
0.923545 -0.111267 0
0.937787 -0.101436 0
0.949857 -0.091323 0
0.960524 -0.081056 0