# vtk DataFile Version 2.0
generated by CFD-lab course output (written by Tobias Neckel) 
ASCII

DATASET STRUCTURED_GRID
DIMENSIONS  101 21 1 
POINTS 2121 float

0.000000 0.000000 0
0.100000 0.000000 0
0.200000 0.000000 0
0.300000 0.000000 0
0.400000 0.000000 0
0.500000 0.000000 0
0.600000 0.000000 0
0.700000 0.000000 0
0.800000 0.000000 0
0.900000 0.000000 0
1.000000 0.000000 0
1.100000 0.000000 0
1.200000 0.000000 0
1.300000 0.000000 0
1.400000 0.000000 0
1.500000 0.000000 0
1.600000 0.000000 0
1.700000 0.000000 0
1.800000 0.000000 0
1.900000 0.000000 0
2.000000 0.000000 0
2.100000 0.000000 0
2.200000 0.000000 0
2.300000 0.000000 0
2.400000 0.000000 0
2.500000 0.000000 0
2.600000 0.000000 0
2.700000 0.000000 0
2.800000 0.000000 0
2.900000 0.000000 0
3.000000 0.000000 0
3.100000 0.000000 0
3.200000 0.000000 0
3.300000 0.000000 0
3.400000 0.000000 0
3.500000 0.000000 0
3.600000 0.000000 0
3.700000 0.000000 0
3.800000 0.000000 0
3.900000 0.000000 0
4.000000 0.000000 0
4.100000 0.000000 0
4.200000 0.000000 0
4.300000 0.000000 0
4.400000 0.000000 0
4.500000 0.000000 0
4.600000 0.000000 0
4.700000 0.000000 0
4.800000 0.000000 0
4.900000 0.000000 0
5.000000 0.000000 0
5.100000 0.000000 0
5.200000 0.000000 0
5.300000 0.000000 0
5.400000 0.000000 0
5.500000 0.000000 0
5.600000 0.000000 0
5.700000 0.000000 0
5.800000 0.000000 0
5.900000 0.000000 0
6.000000 0.000000 0
6.100000 0.000000 0
6.200000 0.000000 0
6.300000 0.000000 0
6.400000 0.000000 0
6.500000 0.000000 0
6.600000 0.000000 0
6.700000 0.000000 0
6.800000 0.000000 0
6.900000 0.000000 0
7.000000 0.000000 0
7.100000 0.000000 0
7.200000 0.000000 0
7.300000 0.000000 0
7.400000 0.000000 0
7.500000 0.000000 0
7.600000 0.000000 0
7.700000 0.000000 0
7.800000 0.000000 0
7.900000 0.000000 0
8.000000 0.000000 0
8.100000 0.000000 0
8.200000 0.000000 0
8.300000 0.000000 0
8.400000 0.000000 0
8.500000 0.000000 0
8.600000 0.000000 0
8.700000 0.000000 0
8.800000 0.000000 0
8.900000 0.000000 0
9.000000 0.000000 0
9.100000 0.000000 0
9.200000 0.000000 0
9.300000 0.000000 0
9.400000 0.000000 0
9.500000 0.000000 0
9.600000 0.000000 0
9.700000 0.000000 0
9.800000 0.000000 0
9.900000 0.000000 0
10.000000 0.000000 0
0.000000 0.100000 0
0.100000 0.100000 0
0.200000 0.100000 0
0.300000 0.100000 0
0.400000 0.100000 0
0.500000 0.100000 0
0.600000 0.100000 0
0.700000 0.100000 0
0.800000 0.100000 0
0.900000 0.100000 0
1.000000 0.100000 0
1.100000 0.100000 0
1.200000 0.100000 0
1.300000 0.100000 0
1.400000 0.100000 0
1.500000 0.100000 0
1.600000 0.100000 0
1.700000 0.100000 0
1.800000 0.100000 0
1.900000 0.100000 0
2.000000 0.100000 0
2.100000 0.100000 0
2.200000 0.100000 0
2.300000 0.100000 0
2.400000 0.100000 0
2.500000 0.100000 0
2.600000 0.100000 0
2.700000 0.100000 0
2.800000 0.100000 0
2.900000 0.100000 0
3.000000 0.100000 0
3.100000 0.100000 0
3.200000 0.100000 0
3.300000 0.100000 0
3.400000 0.100000 0
3.500000 0.100000 0
3.600000 0.100000 0
3.700000 0.100000 0
3.800000 0.100000 0
3.900000 0.100000 0
4.000000 0.100000 0
4.100000 0.100000 0
4.200000 0.100000 0
4.300000 0.100000 0
4.400000 0.100000 0
4.500000 0.100000 0
4.600000 0.100000 0
4.700000 0.100000 0
4.800000 0.100000 0
4.900000 0.100000 0
5.000000 0.100000 0
5.100000 0.100000 0
5.200000 0.100000 0
5.300000 0.100000 0
5.400000 0.100000 0
5.500000 0.100000 0
5.600000 0.100000 0
5.700000 0.100000 0
5.800000 0.100000 0
5.900000 0.100000 0
6.000000 0.100000 0
6.100000 0.100000 0
6.200000 0.100000 0
6.300000 0.100000 0
6.400000 0.100000 0
6.500000 0.100000 0
6.600000 0.100000 0
6.700000 0.100000 0
6.800000 0.100000 0
6.900000 0.100000 0
7.000000 0.100000 0
7.100000 0.100000 0
7.200000 0.100000 0
7.300000 0.100000 0
7.400000 0.100000 0
7.500000 0.100000 0
7.600000 0.100000 0
7.700000 0.100000 0
7.800000 0.100000 0
7.900000 0.100000 0
8.000000 0.100000 0
8.100000 0.100000 0
8.200000 0.100000 0
8.300000 0.100000 0
8.400000 0.100000 0
8.500000 0.100000 0
8.600000 0.100000 0
8.700000 0.100000 0
8.800000 0.100000 0
8.900000 0.100000 0
9.000000 0.100000 0
9.100000 0.100000 0
9.200000 0.100000 0
9.300000 0.100000 0
9.400000 0.100000 0
9.500000 0.100000 0
9.600000 0.100000 0
9.700000 0.100000 0
9.800000 0.100000 0
9.900000 0.100000 0
10.000000 0.100000 0
0.000000 0.200000 0
0.100000 0.200000 0
0.200000 0.200000 0
0.300000 0.200000 0
0.400000 0.200000 0
0.500000 0.200000 0
0.600000 0.200000 0
0.700000 0.200000 0
0.800000 0.200000 0
0.900000 0.200000 0
1.000000 0.200000 0
1.100000 0.200000 0
1.200000 0.200000 0
1.300000 0.200000 0
1.400000 0.200000 0
1.500000 0.200000 0
1.600000 0.200000 0
1.700000 0.200000 0
1.800000 0.200000 0
1.900000 0.200000 0
2.000000 0.200000 0
2.100000 0.200000 0
2.200000 0.200000 0
2.300000 0.200000 0
2.400000 0.200000 0
2.500000 0.200000 0
2.600000 0.200000 0
2.700000 0.200000 0
2.800000 0.200000 0
2.900000 0.200000 0
3.000000 0.200000 0
3.100000 0.200000 0
3.200000 0.200000 0
3.300000 0.200000 0
3.400000 0.200000 0
3.500000 0.200000 0
3.600000 0.200000 0
3.700000 0.200000 0
3.800000 0.200000 0
3.900000 0.200000 0
4.000000 0.200000 0
4.100000 0.200000 0
4.200000 0.200000 0
4.300000 0.200000 0
4.400000 0.200000 0
4.500000 0.200000 0
4.600000 0.200000 0
4.700000 0.200000 0
4.800000 0.200000 0
4.900000 0.200000 0
5.000000 0.200000 0
5.100000 0.200000 0
5.200000 0.200000 0
5.300000 0.200000 0
5.400000 0.200000 0
5.500000 0.200000 0
5.600000 0.200000 0
5.700000 0.200000 0
5.800000 0.200000 0
5.900000 0.200000 0
6.000000 0.200000 0
6.100000 0.200000 0
6.200000 0.200000 0
6.300000 0.200000 0
6.400000 0.200000 0
6.500000 0.200000 0
6.600000 0.200000 0
6.700000 0.200000 0
6.800000 0.200000 0
6.900000 0.200000 0
7.000000 0.200000 0
7.100000 0.200000 0
7.200000 0.200000 0
7.300000 0.200000 0
7.400000 0.200000 0
7.500000 0.200000 0
7.600000 0.200000 0
7.700000 0.200000 0
7.800000 0.200000 0
7.900000 0.200000 0
8.000000 0.200000 0
8.100000 0.200000 0
8.200000 0.200000 0
8.300000 0.200000 0
8.400000 0.200000 0
8.500000 0.200000 0
8.600000 0.200000 0
8.700000 0.200000 0
8.800000 0.200000 0
8.900000 0.200000 0
9.000000 0.200000 0
9.100000 0.200000 0
9.200000 0.200000 0
9.300000 0.200000 0
9.400000 0.200000 0
9.500000 0.200000 0
9.600000 0.200000 0
9.700000 0.200000 0
9.800000 0.200000 0
9.900000 0.200000 0
10.000000 0.200000 0
0.000000 0.300000 0
0.100000 0.300000 0
0.200000 0.300000 0
0.300000 0.300000 0
0.400000 0.300000 0
0.500000 0.300000 0
0.600000 0.300000 0
0.700000 0.300000 0
0.800000 0.300000 0
0.900000 0.300000 0
1.000000 0.300000 0
1.100000 0.300000 0
1.200000 0.300000 0
1.300000 0.300000 0
1.400000 0.300000 0
1.500000 0.300000 0
1.600000 0.300000 0
1.700000 0.300000 0
1.800000 0.300000 0
1.900000 0.300000 0
2.000000 0.300000 0
2.100000 0.300000 0
2.200000 0.300000 0
2.300000 0.300000 0
2.400000 0.300000 0
2.500000 0.300000 0
2.600000 0.300000 0
2.700000 0.300000 0
2.800000 0.300000 0
2.900000 0.300000 0
3.000000 0.300000 0
3.100000 0.300000 0
3.200000 0.300000 0
3.300000 0.300000 0
3.400000 0.300000 0
3.500000 0.300000 0
3.600000 0.300000 0
3.700000 0.300000 0
3.800000 0.300000 0
3.900000 0.300000 0
4.000000 0.300000 0
4.100000 0.300000 0
4.200000 0.300000 0
4.300000 0.300000 0
4.400000 0.300000 0
4.500000 0.300000 0
4.600000 0.300000 0
4.700000 0.300000 0
4.800000 0.300000 0
4.900000 0.300000 0
5.000000 0.300000 0
5.100000 0.300000 0
5.200000 0.300000 0
5.300000 0.300000 0
5.400000 0.300000 0
5.500000 0.300000 0
5.600000 0.300000 0
5.700000 0.300000 0
5.800000 0.300000 0
5.900000 0.300000 0
6.000000 0.300000 0
6.100000 0.300000 0
6.200000 0.300000 0
6.300000 0.300000 0
6.400000 0.300000 0
6.500000 0.300000 0
6.600000 0.300000 0
6.700000 0.300000 0
6.800000 0.300000 0
6.900000 0.300000 0
7.000000 0.300000 0
7.100000 0.300000 0
7.200000 0.300000 0
7.300000 0.300000 0
7.400000 0.300000 0
7.500000 0.300000 0
7.600000 0.300000 0
7.700000 0.300000 0
7.800000 0.300000 0
7.900000 0.300000 0
8.000000 0.300000 0
8.100000 0.300000 0
8.200000 0.300000 0
8.300000 0.300000 0
8.400000 0.300000 0
8.500000 0.300000 0
8.600000 0.300000 0
8.700000 0.300000 0
8.800000 0.300000 0
8.900000 0.300000 0
9.000000 0.300000 0
9.100000 0.300000 0
9.200000 0.300000 0
9.300000 0.300000 0
9.400000 0.300000 0
9.500000 0.300000 0
9.600000 0.300000 0
9.700000 0.300000 0
9.800000 0.300000 0
9.900000 0.300000 0
10.000000 0.300000 0
0.000000 0.400000 0
0.100000 0.400000 0
0.200000 0.400000 0
0.300000 0.400000 0
0.400000 0.400000 0
0.500000 0.400000 0
0.600000 0.400000 0
0.700000 0.400000 0
0.800000 0.400000 0
0.900000 0.400000 0
1.000000 0.400000 0
1.100000 0.400000 0
1.200000 0.400000 0
1.300000 0.400000 0
1.400000 0.400000 0
1.500000 0.400000 0
1.600000 0.400000 0
1.700000 0.400000 0
1.800000 0.400000 0
1.900000 0.400000 0
2.000000 0.400000 0
2.100000 0.400000 0
2.200000 0.400000 0
2.300000 0.400000 0
2.400000 0.400000 0
2.500000 0.400000 0
2.600000 0.400000 0
2.700000 0.400000 0
2.800000 0.400000 0
2.900000 0.400000 0
3.000000 0.400000 0
3.100000 0.400000 0
3.200000 0.400000 0
3.300000 0.400000 0
3.400000 0.400000 0
3.500000 0.400000 0
3.600000 0.400000 0
3.700000 0.400000 0
3.800000 0.400000 0
3.900000 0.400000 0
4.000000 0.400000 0
4.100000 0.400000 0
4.200000 0.400000 0
4.300000 0.400000 0
4.400000 0.400000 0
4.500000 0.400000 0
4.600000 0.400000 0
4.700000 0.400000 0
4.800000 0.400000 0
4.900000 0.400000 0
5.000000 0.400000 0
5.100000 0.400000 0
5.200000 0.400000 0
5.300000 0.400000 0
5.400000 0.400000 0
5.500000 0.400000 0
5.600000 0.400000 0
5.700000 0.400000 0
5.800000 0.400000 0
5.900000 0.400000 0
6.000000 0.400000 0
6.100000 0.400000 0
6.200000 0.400000 0
6.300000 0.400000 0
6.400000 0.400000 0
6.500000 0.400000 0
6.600000 0.400000 0
6.700000 0.400000 0
6.800000 0.400000 0
6.900000 0.400000 0
7.000000 0.400000 0
7.100000 0.400000 0
7.200000 0.400000 0
7.300000 0.400000 0
7.400000 0.400000 0
7.500000 0.400000 0
7.600000 0.400000 0
7.700000 0.400000 0
7.800000 0.400000 0
7.900000 0.400000 0
8.000000 0.400000 0
8.100000 0.400000 0
8.200000 0.400000 0
8.300000 0.400000 0
8.400000 0.400000 0
8.500000 0.400000 0
8.600000 0.400000 0
[...]
POINT_DATA 2121 

VECTORS velocity float
0.500000 0.000000 0
0.000065 0.000000 0
0.000178 0.000000 0
0.000330 0.000000 0
0.000511 0.000000 0
0.000702 0.000000 0
0.000872 0.000000 0
0.000983 0.000000 0
0.001004 0.000000 0
0.000923 0.000000 0
0.000757 0.000000 0
0.000531 0.000000 0
0.000260 0.000000 0
-0.000082 0.000000 0
-0.000544 0.000000 0
-0.001141 0.000000 0
-0.001805 0.000000 0
-0.002394 0.000000 0
-0.002733 0.000000 0
-0.002662 0.000000 0
-0.002118 0.000000 0
-0.001190 0.000000 0
-0.000068 0.000000 0
0.001113 0.000000 0
0.002101 0.000000 0
0.002225 0.000000 0
0.004870 0.000000 0
0.015325 0.000000 0
0.003051 0.000000 0
-0.017644 0.000000 0
-0.015696 0.000000 0
0.010986 0.000000 0
0.041492 0.000000 0
0.037439 0.000000 0
0.021691 0.000000 0
0.009327 0.000000 0
0.001949 0.000000 0
-0.002876 0.000000 0
-0.007672 0.000000 0
-0.014167 0.000000 0
-0.021339 0.000000 0
-0.023606 0.000000 0
-0.019337 0.000000 0
-0.015327 0.000000 0
-0.016998 0.000000 0
-0.017977 0.000000 0
-0.018212 0.000000 0
-0.018728 0.000000 0
-0.019555 0.000000 0
-0.019213 0.000000 0
-0.016446 0.000000 0
-0.011149 0.000000 0
-0.002259 0.000000 0
0.010996 0.000000 0
0.024876 0.000000 0
0.033071 0.000000 0
0.031740 0.000000 0
0.023536 0.000000 0
0.017351 0.000000 0
0.020988 0.000000 0
0.008209 0.000000 0
0.008526 0.000000 0
0.011772 0.000000 0
0.004128 0.000000 0
-0.004925 0.000000 0
-0.008000 0.000000 0
-0.006215 0.000000 0
-0.002599 0.000000 0
0.004250 0.000000 0
0.007683 0.000000 0
0.006445 0.000000 0
0.003295 0.000000 0
0.000891 0.000000 0
-0.000176 0.000000 0
0.000373 0.000000 0
0.002528 0.000000 0
0.005905 0.000000 0
0.006820 0.000000 0
0.005548 0.000000 0
0.003712 0.000000 0
0.002235 0.000000 0
0.001310 0.000000 0
0.000676 0.000000 0
0.000093 0.000000 0
-0.000549 0.000000 0
-0.001334 0.000000 0
-0.002242 0.000000 0
-0.003184 0.000000 0
-0.004069 0.000000 0
-0.004854 0.000000 0
-0.005567 0.000000 0
-0.006337 0.000000 0
-0.007235 0.000000 0
-0.008163 0.000000 0
-0.009167 0.000000 0
-0.009900 0.000000 0
-0.009965 0.000000 0
-0.009211 0.000000 0
-0.007988 0.000000 0
-0.007362 0.000000 0
-0.007200 0.000000 0
1.000000 -0.003619 0
1.007803 -0.011089 0
1.023454 -0.018913 0
1.047228 -0.026842 0
1.079297 -0.034383 0
1.119151 -0.040589 0
1.164989 -0.044129 0
1.213388 -0.043539 0
1.258290 -0.038574 0
1.295289 -0.030709 0
1.322759 -0.021669 0
1.340711 -0.012458 0
1.349237 -0.003663 0
1.348761 0.003799 0
1.341225 0.008703 0
1.330291 0.010351 0
1.319956 0.009237 0
1.312872 0.007018 0
1.309091 0.005832 0
1.306110 0.007363 0
1.300143 0.012313 0
1.287203 0.020244 0
1.264354 0.029775 0
1.230894 0.039155 0
1.188080 0.043425 0
1.138897 0.040080 0
1.080745 0.085548 0
1.001465 0.144417 0
0.969993 0.021877 0
0.995778 -0.173743 0
0.935249 -0.170689 0
0.836780 0.049133 0
0.627428 0.300544 0
0.369705 0.349415 0
0.206369 0.218281 0
0.149100 0.080562 0
0.157468 -0.002106 0
0.192798 -0.044458 0
0.237296 -0.075995 0
0.297842 -0.120409 0
0.399207 -0.173057 0
0.569151 -0.194761 0
0.776492 -0.164055 0
0.963786 -0.134665 0
1.100061 -0.133316 0
1.226792 -0.130780 0
1.343600 -0.124228 0
1.450514 -0.119093 0
1.550994 -0.115681 0
1.646777 -0.107621 0
1.732314 -0.089320 0
1.795491 -0.058043 0
1.821808 -0.007680 0
1.797841 0.064842 0
1.717696 0.143228 0
1.591281 0.195936 0
1.443183 0.198538 0
1.299903 0.162999 0
1.173262 0.149585 0
1.061148 0.149173 0
0.966021 0.091964 0
0.845804 0.080530 0
0.718286 0.113198 0
0.675648 0.048821 0
0.685870 -0.056168 0
0.673696 -0.096700 0
0.648954 -0.069095 0
0.664881 -0.011625 0
0.677178 0.049819 0
0.626939 0.078437 0
0.563423 0.058331 0
0.535536 0.017768 0
0.540697 -0.013125 0
0.553439 -0.025142 0
0.552464 -0.014251 0
0.525194 0.024184 0
0.470405 0.072823 0
0.402727 0.094656 0
0.343281 0.082467 0
0.301747 0.056253 0
0.277209 0.032840 0
0.263500 0.018954 0
0.254526 0.011143 0
0.248923 0.005667 0
0.247239 0.000832 0
0.250438 -0.005649 0
0.260043 -0.013779 0
0.277427 -0.022193 0
0.302486 -0.029819 0
0.333684 -0.036225 0
0.369088 -0.041638 0
0.407512 -0.047427 0
0.448799 -0.053948 0
0.493676 -0.060708 0
0.543997 -0.067123 0
0.601870 -0.070491 0
0.666888 -0.067750 0
0.734990 -0.056576 0
0.798001 -0.037775 0
0.845501 -0.020824 0
0.862594 -0.014556 0
1.000000 -0.007809 0
1.007945 -0.023463 0
1.023762 -0.039431 0
1.048110 -0.055848 0
1.081960 -0.071928 0
1.125607 -0.085697 0
1.177722 -0.094241 0
1.235826 -0.093303 0
1.288293 -0.081903 0
1.329053 -0.064470 0
1.357895 -0.045421 0
1.376854 -0.026477 0
1.385776 -0.008049 0
1.383612 0.008014 0
1.372129 0.018472 0
1.356898 0.021272 0
1.344276 0.017422 0
1.338658 0.010869 0
1.339998 0.006766 0
1.344034 0.008952 0
1.345477 0.018912 0
1.338652 0.035795 0
1.318850 0.056314 0
1.286259 0.076279 0
1.243364 0.092002 0
1.188014 0.107340 0
1.117627 0.137438 0
1.094876 0.110758 0
1.081623 0.005693 0
0.855176 0.034750 0
0.588803 0.159003 0
0.394281 0.307825 0
0.199748 0.467080 0
0.151218 0.421064 0
0.196503 0.220609 0
0.255192 0.048904 0
0.323764 -0.043695 0
0.396814 -0.079825 0
0.446973 -0.105041 0
0.459196 -0.161910 0
0.452240 -0.271308 0
0.490610 -0.377285 0
0.621756 -0.394635 0
0.824978 -0.323570 0
0.993449 -0.263008 0
1.105722 -0.243542 0
1.200630 -0.223725 0
1.280804 -0.207397 0
1.347499 -0.196266 0
1.403931 -0.181324 0
1.450849 -0.148720 0
1.481414 -0.089500 0
1.486702 -0.002355 0
1.466553 0.104106 0
1.429987 0.206554 0
1.386214 0.274507 0
1.336512 0.291371 0
1.273917 0.269914 0
1.201771 0.238749 0
1.154319 0.207235 0
1.105300 0.215337 0
0.995401 0.247729 0
0.934308 0.170150 0
0.945386 0.032410 0
0.963843 0.001947 0
0.921458 0.036910 0
0.856172 0.008809 0
0.747933 -0.028228 0
0.594515 0.037939 0
0.469825 0.113751 0
0.407027 0.091400 0
0.387129 0.022723 0
0.387781 -0.017905 0
0.386862 -0.011769 0
0.369155 0.028244 0
0.334644 0.082059 0
0.302786 0.122467 0
0.287827 0.127125 0
0.287410 0.100981 0
0.296353 0.066073 0
0.306412 0.038250 0
0.312180 0.022686 0
0.313073 0.014580 0
0.310460 0.007291 0
0.308713 -0.001510 0
0.311612 -0.012799 0
0.321164 -0.026983 0
0.338505 -0.042437 0
0.363793 -0.056251 0
0.395861 -0.066596 0
0.431473 -0.073821 0
0.466094 -0.079704 0
0.494994 -0.086156 0
0.516966 -0.095190 0
0.534328 -0.108186 0
0.552728 -0.122883 0
0.579164 -0.133112 0
0.618409 -0.131104 0
0.671127 -0.110503 0
0.737180 -0.064585 0
0.755159 -0.033839 0
1.000000 -0.011569 0
1.006674 -0.034858 0
1.020690 -0.059082 0
1.043545 -0.085044 0
1.078040 -0.111883 0
1.125915 -0.136354 0
1.186754 -0.154350 0
1.266135 -0.154111 0
1.331768 -0.131801 0
1.375822 -0.100312 0
1.403247 -0.069470 0
1.422468 -0.040339 0
1.431928 -0.010420 0
1.425512 0.017446 0
1.403779 0.035418 0
1.377181 0.038204 0
1.357239 0.027478 0
1.352654 0.011297 0
1.362647 0.000458 0
1.377638 0.001885 0
1.390584 0.017696 0
1.393133 0.046873 0
1.374507 0.082171 0
1.336967 0.114643 0
1.286456 0.141672 0
1.227930 0.165819 0
1.171205 0.178688 0
1.132918 0.180424 0
1.024484 0.261579 0
0.800974 0.319079 0
0.630420 0.290207 0
0.404052 0.438189 0
0.270535 0.543608 0
0.388884 0.352661 0
0.490473 0.114309 0
0.458621 -0.046697 0
0.437215 -0.143727 0
0.502022 -0.167667 0
0.610962 -0.138377 0
0.720660 -0.125675 0
0.783112 -0.204471 0
0.755508 -0.364277 0
0.712880 -0.498424 0
0.761181 -0.506358 0
0.900934 -0.414062 0
1.016937 -0.337962 0
1.089668 -0.299311 0
1.146579 -0.265965 0
1.186292 -0.238809 0
1.210689 -0.210974 0
1.224597 -0.166805 0
1.230002 -0.093898 0
1.226706 0.007178 0
1.218964 0.121555 0
1.216250 0.223564 0
1.226191 0.289408 0
1.238443 0.310833 0
1.238864 0.297737 0
1.224044 0.269180 0
1.198537 0.245641 0
1.156926 0.250880 0
1.138770 0.251520 0
1.137240 0.163211 0
1.076061 0.019284 0
1.036452 -0.032241 0
1.046255 0.010970 0
0.987338 0.104428 0
0.782406 0.250031 0
0.567587 0.327926 0
0.477372 0.265924 0
0.459767 0.141027 0
0.431280 0.037013 0
0.397622 -0.012858 0
0.377338 -0.006517 0
0.363634 0.037967 0
0.349125 0.090554 0
0.341835 0.119640 0
0.350506 0.110033 0
0.372151 0.073942 0
0.397172 0.037252 0
0.415022 0.017014 0
0.421536 0.012295 0
0.418184 0.012865 0
0.407810 0.010029 0
0.396342 -0.000318 0
0.389918 -0.018097 0
0.392143 -0.040669 0
0.404920 -0.064819 0
0.429630 -0.087173 0
0.466987 -0.103902 0
0.516761 -0.111868 0
0.574430 -0.110946 0
0.633800 -0.104816 0
0.685735 -0.100038 0
0.719505 -0.102881 0
0.727823 -0.115323 0
0.711298 -0.133427 0
0.683262 -0.148536 0
0.662074 -0.156544 0
0.680006 -0.104852 0
0.688817 -0.050593 0
1.000000 -0.014489 0
1.003717 -0.044162 0
1.013945 -0.076307 0
1.032434 -0.113203 0
1.066244 -0.154302 0
1.117504 -0.194415 0
1.188301 -0.234463 0
1.320481 -0.238318 0
1.403866 -0.191591 0
1.443254 -0.135950 0
1.458890 -0.092067 0
1.477202 -0.055158 0
1.491912 -0.011093 0
1.481524 0.036164 0
1.441326 0.066805 0
1.393163 0.067813 0
1.356888 0.041950 0
1.352320 0.005461 0
1.374946 -0.018216 0
1.398651 -0.018983 0
1.423112 0.003419 0
1.445382 0.051873 0
1.434923 0.112481 0
1.401726 0.164332 0
1.350488 0.201042 0
1.283060 0.222594 0
1.209353 0.232452 0
1.130064 0.257481 0
1.039481 0.337639 0
0.997392 0.428816 0
0.881201 0.555926 0
0.696460 0.667713 0
0.674141 0.482250 0
0.641464 0.201127 0
0.481170 0.150874 0
0.297648 0.102163 0
0.195639 -0.087096 0
0.190108 -0.253571 0
0.264838 -0.323679 0
0.420999 -0.334060 0
0.606124 -0.306156 0
0.732411 -0.307053 0
0.777018 -0.400309 0
0.782647 -0.511625 0
0.828526 -0.518765 0
0.916216 -0.432277 0
0.986525 -0.353369 0
1.033743 -0.304024 0
1.054899 -0.260378 0
1.050397 -0.219631 0
1.032421 -0.168036 0
1.018882 -0.091612 0
1.017490 0.008681 0
1.031358 0.114560 0
1.061045 0.199324 0
1.105161 0.252312 0
1.158094 0.278694 0
1.197011 0.284309 0
1.213840 0.279073 0
1.208916 0.274351 0
1.191046 0.275102 0
1.183969 0.267412 0
1.163035 0.232858 0
1.052812 0.133196 0
0.871653 0.031750 0
0.755780 0.086023 0
0.638418 0.272656 0
0.533064 0.391521 0
0.515936 0.342972 0
0.534228 0.221570 0
0.528734 0.137491 0
0.500806 0.084868 0
0.472690 0.036037 0
0.455044 0.022220 0
0.446594 0.056458 0
0.445502 0.103857 0
0.455397 0.121087 0
0.474594 0.096811 0
0.490461 0.054316 0
0.490014 0.023204 0
0.472926 0.013888 0
0.448203 0.019525 0
0.422812 0.028308 0
0.401057 0.029135 0
0.386507 0.016384 0
0.380807 -0.008597 0
0.383462 -0.041984 0
0.393960 -0.079921 0
0.412691 -0.118315 0
0.440501 -0.153724 0
0.479409 -0.181261 0
0.531586 -0.196740 0
0.597822 -0.197458 0
0.674815 -0.180892 0
0.753176 -0.150272 0
0.817593 -0.114673 0
0.855288 -0.088546 0
0.859022 -0.081877 0
0.819880 -0.107243 0
0.772705 -0.091324 0
0.769014 -0.052241 0
1.000000 -0.015295 0
1.001886 -0.048815 0
1.008529 -0.087804 0
1.014114 -0.137348 0
1.043493 -0.196957 0
1.088634 -0.258415 0
1.170081 -0.357330 0
1.415724 -0.369678 0
1.488187 -0.254576 0
1.489251 -0.155336 0
1.463338 -0.103419 0
1.461415 -0.073361 0
1.499662 -0.014742 0
1.501991 0.068032 0
1.427840 0.123779 0
1.348695 0.122644 0
1.277527 0.068322 0
1.264301 -0.006760 0
1.293546 -0.045872 0
1.296375 -0.046279 0
1.308866 -0.029033 0
1.383938 0.035062 0
1.400356 0.125828 0
1.396571 0.199079 0
1.382127 0.260340 0
1.344828 0.306956 0
1.283599 0.331686 0
1.200153 0.350298 0
1.116480 0.394253 0
1.065538 0.477361 0
1.014259 0.591141 0
1.021188 0.645252 0
1.041493 0.598606 0
0.866958 0.545633 0
0.651339 0.458126 0
0.569791 0.238836 0
0.490231 -0.036186 0
0.313033 -0.236866 0
0.171213 -0.369268 0
0.149969 -0.466961 0
0.242735 -0.515883 0
0.399179 -0.535172 0
0.564954 -0.548661 0
0.689207 -0.557867 0
0.766579 -0.547632 0
0.827936 -0.495962 0
0.876586 -0.416840 0
0.898357 -0.334340 0
0.909097 -0.255465 0
0.909945 -0.188498 0
0.899724 -0.135293 0
0.888404 -0.078970 0
0.890705 -0.005300 0
0.914376 0.077997 0
0.957256 0.149759 0
1.014345 0.192356 0
1.075806 0.218980 0
1.126356 0.241989 0
1.157079 0.257272 0
1.166090 0.268432 0
1.157957 0.275825 0
1.138820 0.279530 0
1.100785 0.294366 0
1.017389 0.310663 0
0.840162 0.264788 0
0.652549 0.244203 0
0.535571 0.327142 0
0.525731 0.372511 0
0.557095 0.326760 0
0.558665 0.253125 0
0.541853 0.174448 0
0.547176 0.093056 0
0.562112 0.032904 0
0.570590 0.019579 0
0.577783 0.047509 0
0.595554 0.081751 0
0.624559 0.090549 0
0.648836 0.074970 0
0.650669 0.058523 0
0.627692 0.054789 0
0.593425 0.058827 0
0.561616 0.062410 0
0.540489 0.060012 0
0.533913 0.046337 0
0.539543 0.019935 0
0.553398 -0.015049 0
0.571863 -0.053819 0
0.592329 -0.094046 0
0.613258 -0.133711 0
0.631619 -0.170617 0
0.642730 -0.202950 0
0.645835 -0.229356 0
0.644776 -0.248042 0
0.651593 -0.255388 0
0.677761 -0.245656 0
0.731304 -0.217432 0
0.800858 -0.174853 0
0.858800 -0.113125 0
0.899685 -0.070223 0
0.886202 -0.053983 0
0.884543 -0.043562 0
1.000000 -0.016385 0
0.999300 -0.052705 0
1.003238 -0.088542 0
0.999413 -0.148173 0
1.012924 -0.228828 0
1.020274 -0.321007 0
1.120501 -0.561556 0
1.452073 -0.556428 0
1.379177 -0.265121 0
1.281469 -0.111101 0
1.233253 -0.064231 0
1.085597 -0.091483 0
1.191369 -0.051668 0
1.274737 0.107986 0
1.269254 0.220101 0
1.090221 0.218127 0
0.989472 0.126345 0
0.829048 -0.010558 0
0.806749 -0.050290 0
0.679431 -0.034302 0
0.572250 -0.084143 0
0.832672 -0.039615 0
0.972781 0.099851 0
1.126727 0.182562 0
1.211047 0.252786 0
1.244309 0.321124 0
1.259104 0.377129 0
1.247330 0.424602 0
1.212555 0.472256 0
1.176952 0.531039 0
1.161102 0.600279 0
1.181817 0.640480 0
1.185954 0.636481 0
1.161603 0.591283 0
1.161995 0.448041 0
1.164538 0.263272 0
1.083640 0.169664 0
0.896244 0.065447 0
0.643327 -0.160615 0
0.468261 -0.405581 0
0.425947 -0.555367 0
0.461268 -0.629272 0
0.499678 -0.690337 0
0.561786 -0.713251 0
0.653821 -0.657496 0
0.737877 -0.542285 0
0.787991 -0.423790 0
0.792075 -0.336536 0
0.768677 -0.271968 0
0.749686 -0.210261 0
0.749401 -0.146497 0
0.764651 -0.082595 0
0.801806 -0.017294 0
0.860264 0.048006 0
0.930226 0.099353 0
0.999198 0.133760 0
1.063198 0.166681 0
1.121198 0.203033 0
1.163128 0.239336 0
1.181767 0.273471 0
1.174906 0.302370 0
1.143700 0.324582 0
1.093231 0.354286 0
1.034494 0.393816 0
0.958397 0.396589 0
0.817251 0.390612 0
0.712284 0.399473 0
0.700742 0.369995 0
0.711492 0.310037 0
0.727550 0.236812 0
0.749580 0.148980 0
0.766458 0.064608 0
0.770424 0.012622 0
0.764401 0.006549 0
0.763341 0.031494 0
0.780431 0.057082 0
0.809761 0.067805 0
0.833437 0.070702 0
0.843999 0.075461 0
0.846763 0.080449 0
0.847557 0.079966 0
0.850175 0.072463 0
0.859775 0.056013 0
0.876628 0.030083 0
0.896721 -0.003098 0
0.915631 -0.040914 0
0.931253 -0.080913 0
0.943093 -0.121314 0
0.951074 -0.157602 0
0.955182 -0.183193 0
0.954905 -0.195473 0
0.950171 -0.198782 0
0.941164 -0.203213 0
0.927651 -0.213873 0
0.908181 -0.229979 0
0.882442 -0.237767 0
0.852999 -0.216040 0
0.844649 -0.180700 0
0.877577 -0.134641 0
0.911635 -0.076179 0
0.916143 -0.047610 0
1.000000 -0.014607 0
0.997542 -0.052068 0
0.999637 -0.087925 0
0.978810 -0.147042 0
0.986030 -0.217825 0
0.927459 -0.365997 0
1.009689 -0.789134 0
0.714163 -0.544384 0
0.002085 0.000000 0
0.002616 0.000000 0
0.513447 0.101867 0
0.460721 -0.031477 0
0.405379 -0.203882 0
0.586401 -0.009853 0
0.433020 0.308295 0
0.541053 0.402426 0
0.359719 0.329496 0
0.063032 0.175963 0
-0.159250 0.103745 0
-0.300288 0.188221 0
-0.249194 -0.182274 0
-0.019995 -0.365468 0
0.205339 -0.168225 0
0.549916 -0.039185 0
0.824331 0.142760 0
1.003980 0.258901 0
1.098121 0.328667 0
1.150864 0.396848 0
1.195533 0.464632 0
1.229299 0.528816 0
1.259574 0.586277 0
1.294935 0.620401 0
1.321212 0.618821 0
1.345615 0.569593 0
1.363958 0.455192 0
1.322455 0.317193 0
1.235596 0.232109 0
1.152416 0.203447 0
1.029537 0.058715 0
0.848041 -0.249581 0
0.675828 -0.508889 0
0.638697 -0.608903 0
0.625999 -0.649179 0
0.592825 -0.712011 0
0.589402 -0.723725 0
0.637082 -0.630134 0
0.692845 -0.471039 0
0.712524 -0.315027 0
0.689029 -0.213078 0
0.660880 -0.169223 0
0.669786 -0.150260 0
0.702589 -0.131377 0
0.747423 -0.100915 0
0.816833 -0.050426 0
0.915327 0.010821 0
1.003412 0.059382 0
1.069767 0.096978 0
1.136171 0.142056 0
1.192569 0.196700 0
1.231608 0.256652 0
1.247912 0.313890 0
1.236038 0.361202 0
1.193258 0.403570 0
1.135688 0.445496 0
1.078270 0.482029 0
1.008984 0.490314 0
0.979485 0.443651 0
0.980934 0.373301 0
0.978128 0.299951 0
0.974634 0.215037 0
0.969591 0.135540 0
0.955810 0.072211 0
0.931979 0.034960 0
0.910036 0.026663 0
0.906149 0.031479 0
0.922603 0.035332 0
0.948537 0.037544 0
0.976910 0.040733 0
1.006617 0.045198 0
1.039279 0.051232 0
1.072951 0.055416 0
1.106235 0.050193 0
1.138964 0.033561 0
1.168403 0.009394 0
1.191712 -0.019066 0
1.206192 -0.049579 0
1.210439 -0.081278 0
1.203260 -0.113864 0
1.182937 -0.145797 0
1.151072 -0.174445 0
1.115276 -0.197936 0
1.086860 -0.215612 0
1.073865 -0.225518 0
1.074074 -0.222402 0
1.079477 -0.200444 0
1.076020 -0.162246 0
1.061612 -0.137056 0
1.046154 -0.137699 0
1.018815 -0.137205 0
0.997011 -0.092544 0
0.989896 -0.051220 0
1.000000 -0.013940 0
1.000676 -0.052359 0
0.977803 -0.069819 0
0.977001 -0.134573 0
0.916186 -0.177484 0
0.887843 -0.344673 0
0.725445 -0.432240 0
0.000000 -0.004016 0
-0.613050 0.157861 0
-0.530400 0.000000 0
0.000000 0.000000 0
0.084391 -0.000891 0
-0.039718 -0.177349 0
0.036733 0.080344 0
0.135948 0.265449 0
-0.118795 0.291428 0
-0.291539 0.604365 0
-0.547375 0.508411 0
-0.738250 0.313030 0
-0.704628 0.055642 0
-0.376082 -0.364436 0
-0.495820 -0.494148 0
-0.242928 -0.470059 0
0.033590 -0.436428 0
0.391925 -0.201277 0
0.711972 0.047335 0
0.925799 0.230247 0
1.039826 0.327192 0
1.116418 0.393822 0
1.196420 0.467000 0
1.269179 0.534644 0
1.333355 0.578843 0
1.385277 0.585803 0
1.426418 0.548537 0
1.442993 0.471202 0
1.404102 0.391635 0
1.309241 0.339704 0
1.207130 0.271506 0
1.161131 0.143760 0
1.080119 -0.051872 0
0.885542 -0.346022 0
0.678397 -0.579444 0
0.617451 -0.644466 0
0.609525 -0.676655 0
0.580182 -0.701753 0
0.586135 -0.645729 0
0.643027 -0.499235 0
0.729385 -0.332722 0
0.815571 -0.220325 0
0.855372 -0.191020 0
0.829602 -0.188208 0
0.784230 -0.160234 0
0.764298 -0.131541 0
0.787642 -0.119900 0
0.852096 -0.087228 0
0.937576 -0.020683 0
1.018159 0.033919 0
1.080155 0.080229 0
1.129901 0.143897 0
1.165967 0.218125 0
1.184208 0.297938 0
1.180470 0.379235 0
1.152249 0.454633 0
1.123433 0.508802 0
1.112470 0.523291 0
1.123466 0.489396 0
1.128836 0.427522 0
1.103812 0.371351 0
1.086515 0.316335 0
1.071582 0.245347 0
1.053741 0.167803 0
1.034727 0.102220 0
1.014940 0.058396 0
1.003239 0.032378 0
1.005730 0.018927 0
1.019233 0.014695 0
1.039081 0.013499 0
1.064503 0.012622 0
1.095078 0.013093 0
1.130892 0.014116 0
1.172663 0.013012 0
1.218361 0.006453 0
1.262291 -0.006153 0
1.300269 -0.022663 0
1.328985 -0.040885 0
1.345527 -0.059639 0
1.347031 -0.077978 0
1.330902 -0.093809 0
1.297020 -0.105411 0
1.250315 -0.115530 0
1.199972 -0.131258 0
1.155139 -0.157368 0
1.120806 -0.190424 0
1.098472 -0.219481 0
1.090317 -0.231921 0
1.101348 -0.219898 0
1.132321 -0.186170 0
1.158562 -0.137899 0
1.164285 -0.085495 0
1.148021 -0.047256 0
1.144582 -0.033266 0
1.000000 -0.015298 0
0.996439 -0.029891 0
0.968141 -0.064259 0
0.964882 -0.085433 0
0.873947 -0.128675 0
0.846277 -0.175265 0
0.509628 0.018433 0
0.354164 0.100790 0
0.000000 0.000000 0
0.000000 0.000000 0
0.000000 0.000000 0
0.000000 0.000000 0
0.008344 -0.146990 0
-0.162843 -0.185520 0
-0.023251 0.463822 0
-0.488873 0.829912 0
-0.729281 0.758076 0
-0.617392 0.622674 0
-0.463427 0.260998 0
-0.329562 -0.173947 0
-0.160331 -0.391081 0
-0.172279 -0.498621 0
-0.072169 -0.697634 0
-0.020099 -0.674038 0
0.159879 -0.535621 0
0.436391 -0.274971 0
0.725316 0.000816 0
0.935245 0.206231 0
1.042681 0.308039 0
1.139708 0.376056 0
1.239117 0.449343 0
1.337979 0.504305 0
1.430577 0.525760 0
1.508056 0.511878 0
1.550010 0.477509 0
1.527370 0.450946 0
1.438607 0.429082 0
1.322686 0.351558 0
1.211512 0.185726 0
1.108418 0.026007 0
0.974504 -0.107168 0
0.762999 -0.340812 0
0.647078 -0.580308 0
0.653797 -0.674744 0
0.654242 -0.700336 0
0.628149 -0.692980 0
0.656169 -0.614290 0
0.729950 -0.487573 0
0.806497 -0.339067 0
0.848604 -0.183257 0
0.838637 -0.079120 0
0.818454 -0.066075 0
0.816812 -0.104329 0
0.824668 -0.138226 0
0.833118 -0.139116 0
0.862812 -0.106684 0
0.910618 -0.045603 0
0.944440 0.030312 0
0.967273 0.110886 0
0.980989 0.202343 0
0.987112 0.299384 0
0.993796 0.393159 0
1.007831 0.460605 0