# vtk DataFile Version 2.0
generated by CFD-lab course output (written by Tobias Neckel) 
ASCII

DATASET STRUCTURED_GRID
DIMENSIONS  101 21 1 
POINTS 2121 float

0.000000 0.000000 0
0.100000 0.000000 0
0.200000 0.000000 0
0.300000 0.000000 0
0.400000 0.000000 0
0.500000 0.000000 0
0.600000 0.000000 0
0.700000 0.000000 0
0.800000 0.000000 0
0.900000 0.000000 0
1.000000 0.000000 0
1.100000 0.000000 0
1.200000 0.000000 0
1.300000 0.000000 0
1.400000 0.000000 0
1.500000 0.000000 0
1.600000 0.000000 0
1.700000 0.000000 0
1.800000 0.000000 0
1.900000 0.000000 0
2.000000 0.000000 0
2.100000 0.000000 0
2.200000 0.000000 0
2.300000 0.000000 0
2.400000 0.000000 0
2.500000 0.000000 0
2.600000 0.000000 0
2.700000 0.000000 0
2.800000 0.000000 0
2.900000 0.000000 0
3.000000 0.000000 0
3.100000 0.000000 0
3.200000 0.000000 0
3.300000 0.000000 0
3.400000 0.000000 0
3.500000 0.000000 0
3.600000 0.000000 0
3.700000 0.000000 0
3.800000 0.000000 0
3.900000 0.000000 0
4.000000 0.000000 0
4.100000 0.000000 0
4.200000 0.000000 0
4.300000 0.000000 0
4.400000 0.000000 0
4.500000 0.000000 0
4.600000 0.000000 0
4.700000 0.000000 0
4.800000 0.000000 0
4.900000 0.000000 0
5.000000 0.000000 0
5.100000 0.000000 0
5.200000 0.000000 0
5.300000 0.000000 0
5.400000 0.000000 0
5.500000 0.000000 0
5.600000 0.000000 0
5.700000 0.000000 0
5.800000 0.000000 0
5.900000 0.000000 0
6.000000 0.000000 0
6.100000 0.000000 0
6.200000 0.000000 0
6.300000 0.000000 0
6.400000 0.000000 0
6.500000 0.000000 0
6.600000 0.000000 0
6.700000 0.000000 0
6.800000 0.000000 0
6.900000 0.000000 0
7.000000 0.000000 0
7.100000 0.000000 0
7.200000 0.000000 0
7.300000 0.000000 0
7.400000 0.000000 0
7.500000 0.000000 0
7.600000 0.000000 0
7.700000 0.000000 0
7.800000 0.000000 0
7.900000 0.000000 0
8.000000 0.000000 0
8.100000 0.000000 0
8.200000 0.000000 0
8.300000 0.000000 0
8.400000 0.000000 0
8.500000 0.000000 0
8.600000 0.000000 0
8.700000 0.000000 0
8.800000 0.000000 0
8.900000 0.000000 0
9.000000 0.000000 0
9.100000 0.000000 0
9.200000 0.000000 0
9.300000 0.000000 0
9.400000 0.000000 0
9.500000 0.000000 0
9.600000 0.000000 0
9.700000 0.000000 0
9.800000 0.000000 0
9.900000 0.000000 0
10.000000 0.000000 0
0.000000 0.100000 0
0.100000 0.100000 0
0.200000 0.100000 0
0.300000 0.100000 0
0.400000 0.100000 0
0.500000 0.100000 0
0.600000 0.100000 0
0.700000 0.100000 0
0.800000 0.100000 0
0.900000 0.100000 0
1.000000 0.100000 0
1.100000 0.100000 0
1.200000 0.100000 0
1.300000 0.100000 0
1.400000 0.100000 0
1.500000 0.100000 0
1.600000 0.100000 0
1.700000 0.100000 0
1.800000 0.100000 0
1.900000 0.100000 0
2.000000 0.100000 0
2.100000 0.100000 0
2.200000 0.100000 0
2.300000 0.100000 0
2.400000 0.100000 0
2.500000 0.100000 0
2.600000 0.100000 0
2.700000 0.100000 0
2.800000 0.100000 0
2.900000 0.100000 0
3.000000 0.100000 0
3.100000 0.100000 0
3.200000 0.100000 0
3.300000 0.100000 0
3.400000 0.100000 0
3.500000 0.100000 0
3.600000 0.100000 0
3.700000 0.100000 0
3.800000 0.100000 0
3.900000 0.100000 0
4.000000 0.100000 0
4.100000 0.100000 0
4.200000 0.100000 0
4.300000 0.100000 0
4.400000 0.100000 0
4.500000 0.100000 0
4.600000 0.100000 0
4.700000 0.100000 0
4.800000 0.100000 0
4.900000 0.100000 0
5.000000 0.100000 0
5.100000 0.100000 0
5.200000 0.100000 0
5.300000 0.100000 0
5.400000 0.100000 0
5.500000 0.100000 0
5.600000 0.100000 0
5.700000 0.100000 0
5.800000 0.100000 0
5.900000 0.100000 0
6.000000 0.100000 0
6.100000 0.100000 0
6.200000 0.100000 0
6.300000 0.100000 0
6.400000 0.100000 0
6.500000 0.100000 0
6.600000 0.100000 0
6.700000 0.100000 0
6.800000 0.100000 0
6.900000 0.100000 0
7.000000 0.100000 0
7.100000 0.100000 0
7.200000 0.100000 0
7.300000 0.100000 0
7.400000 0.100000 0
7.500000 0.100000 0
7.600000 0.100000 0
7.700000 0.100000 0
7.800000 0.100000 0
7.900000 0.100000 0
8.000000 0.100000 0
8.100000 0.100000 0
8.200000 0.100000 0
8.300000 0.100000 0
8.400000 0.100000 0
8.500000 0.100000 0
8.600000 0.100000 0
8.700000 0.100000 0
8.800000 0.100000 0
8.900000 0.100000 0
9.000000 0.100000 0
9.100000 0.100000 0
9.200000 0.100000 0
9.300000 0.100000 0
9.400000 0.100000 0
9.500000 0.100000 0
9.600000 0.100000 0
9.700000 0.100000 0
9.800000 0.100000 0
9.900000 0.100000 0
10.000000 0.100000 0
0.000000 0.200000 0
0.100000 0.200000 0
0.200000 0.200000 0
0.300000 0.200000 0
0.400000 0.200000 0
0.500000 0.200000 0
0.600000 0.200000 0
0.700000 0.200000 0
0.800000 0.200000 0
0.900000 0.200000 0
1.000000 0.200000 0
1.100000 0.200000 0
1.200000 0.200000 0
1.300000 0.200000 0
1.400000 0.200000 0
1.500000 0.200000 0
1.600000 0.200000 0
1.700000 0.200000 0
1.800000 0.200000 0
1.900000 0.200000 0
2.000000 0.200000 0
2.100000 0.200000 0
2.200000 0.200000 0
2.300000 0.200000 0
2.400000 0.200000 0
2.500000 0.200000 0
2.600000 0.200000 0
2.700000 0.200000 0
2.800000 0.200000 0
2.900000 0.200000 0
3.000000 0.200000 0
3.100000 0.200000 0
3.200000 0.200000 0
3.300000 0.200000 0
3.400000 0.200000 0
3.500000 0.200000 0
3.600000 0.200000 0
3.700000 0.200000 0
3.800000 0.200000 0
3.900000 0.200000 0
4.000000 0.200000 0
4.100000 0.200000 0
4.200000 0.200000 0
4.300000 0.200000 0
4.400000 0.200000 0
4.500000 0.200000 0
4.600000 0.200000 0
4.700000 0.200000 0
4.800000 0.200000 0
4.900000 0.200000 0
5.000000 0.200000 0
5.100000 0.200000 0
5.200000 0.200000 0
5.300000 0.200000 0
5.400000 0.200000 0
5.500000 0.200000 0
5.600000 0.200000 0
5.700000 0.200000 0
5.800000 0.200000 0
5.900000 0.200000 0
6.000000 0.200000 0
6.100000 0.200000 0
6.200000 0.200000 0
6.300000 0.200000 0
6.400000 0.200000 0
6.500000 0.200000 0
6.600000 0.200000 0
6.700000 0.200000 0
6.800000 0.200000 0
6.900000 0.200000 0
7.000000 0.200000 0
7.100000 0.200000 0
7.200000 0.200000 0
7.300000 0.200000 0
7.400000 0.200000 0
7.500000 0.200000 0
7.600000 0.200000 0
7.700000 0.200000 0
7.800000 0.200000 0
7.900000 0.200000 0
8.000000 0.200000 0
8.100000 0.200000 0
8.200000 0.200000 0
8.300000 0.200000 0
8.400000 0.200000 0
8.500000 0.200000 0
8.600000 0.200000 0
8.700000 0.200000 0
8.800000 0.200000 0
8.900000 0.200000 0
9.000000 0.200000 0
9.100000 0.200000 0
9.200000 0.200000 0
9.300000 0.200000 0
9.400000 0.200000 0
9.500000 0.200000 0
9.600000 0.200000 0
9.700000 0.200000 0
9.800000 0.200000 0
9.900000 0.200000 0
10.000000 0.200000 0
0.000000 0.300000 0
0.100000 0.300000 0
0.200000 0.300000 0
0.300000 0.300000 0
0.400000 0.300000 0
0.500000 0.300000 0
0.600000 0.300000 0
0.700000 0.300000 0
0.800000 0.300000 0
0.900000 0.300000 0
1.000000 0.300000 0
1.100000 0.300000 0
1.200000 0.300000 0
1.300000 0.300000 0
1.400000 0.300000 0
1.500000 0.300000 0
1.600000 0.300000 0
1.700000 0.300000 0
1.800000 0.300000 0
1.900000 0.300000 0
2.000000 0.300000 0
2.100000 0.300000 0
2.200000 0.300000 0
2.300000 0.300000 0
2.400000 0.300000 0
2.500000 0.300000 0
2.600000 0.300000 0
2.700000 0.300000 0
2.800000 0.300000 0
2.900000 0.300000 0
3.000000 0.300000 0
3.100000 0.300000 0
3.200000 0.300000 0
3.300000 0.300000 0
3.400000 0.300000 0
3.500000 0.300000 0
3.600000 0.300000 0
3.700000 0.300000 0
3.800000 0.300000 0
3.900000 0.300000 0
4.000000 0.300000 0
4.100000 0.300000 0
4.200000 0.300000 0
4.300000 0.300000 0
4.400000 0.300000 0
4.500000 0.300000 0
4.600000 0.300000 0
4.700000 0.300000 0
4.800000 0.300000 0
4.900000 0.300000 0
5.000000 0.300000 0
5.100000 0.300000 0
5.200000 0.300000 0
5.300000 0.300000 0
5.400000 0.300000 0
5.500000 0.300000 0
5.600000 0.300000 0
5.700000 0.300000 0
5.800000 0.300000 0
5.900000 0.300000 0
6.000000 0.300000 0
6.100000 0.300000 0
6.200000 0.300000 0
6.300000 0.300000 0
6.400000 0.300000 0
6.500000 0.300000 0
6.600000 0.300000 0
6.700000 0.300000 0
6.800000 0.300000 0
6.900000 0.300000 0
7.000000 0.300000 0
7.100000 0.300000 0
7.200000 0.300000 0
7.300000 0.300000 0
7.400000 0.300000 0
7.500000 0.300000 0
7.600000 0.300000 0
7.700000 0.300000 0
7.800000 0.300000 0
7.900000 0.300000 0
8.000000 0.300000 0
8.100000 0.300000 0
8.200000 0.300000 0
8.300000 0.300000 0
8.400000 0.300000 0
8.500000 0.300000 0
8.600000 0.300000 0
8.700000 0.300000 0
8.800000 0.300000 0
8.900000 0.300000 0
9.000000 0.300000 0
9.100000 0.300000 0
9.200000 0.300000 0
9.300000 0.300000 0
9.400000 0.300000 0
9.500000 0.300000 0
9.600000 0.300000 0
9.700000 0.300000 0
9.800000 0.300000 0
9.900000 0.300000 0
10.000000 0.300000 0
0.000000 0.400000 0
0.100000 0.400000 0
0.200000 0.400000 0
0.300000 0.400000 0
0.400000 0.400000 0
0.500000 0.400000 0
0.600000 0.400000 0
0.700000 0.400000 0
0.800000 0.400000 0
0.900000 0.400000 0
1.000000 0.400000 0
1.100000 0.400000 0
1.200000 0.400000 0
1.300000 0.400000 0
1.400000 0.400000 0
1.500000 0.400000 0
1.600000 0.400000 0
1.700000 0.400000 0
1.800000 0.400000 0
1.900000 0.400000 0
2.000000 0.400000 0
2.100000 0.400000 0
2.200000 0.400000 0
2.300000 0.400000 0
2.400000 0.400000 0
2.500000 0.400000 0
2.600000 0.400000 0
2.700000 0.400000 0
2.800000 0.400000 0
2.900000 0.400000 0
3.000000 0.400000 0
3.100000 0.400000 0
3.200000 0.400000 0
3.300000 0.400000 0
3.400000 0.400000 0
3.500000 0.400000 0
3.600000 0.400000 0
3.700000 0.400000 0
3.800000 0.400000 0
3.900000 0.400000 0
4.000000 0.400000 0
4.100000 0.400000 0
4.200000 0.400000 0
4.300000 0.400000 0
4.400000 0.400000 0
4.500000 0.400000 0
4.600000 0.400000 0
4.700000 0.400000 0
4.800000 0.400000 0
4.900000 0.400000 0
5.000000 0.400000 0
5.100000 0.400000 0
5.200000 0.400000 0
5.300000 0.400000 0
5.400000 0.400000 0
5.500000 0.400000 0
5.600000 0.400000 0
5.700000 0.400000 0
5.800000 0.400000 0
5.900000 0.400000 0
6.000000 0.400000 0
6.100000 0.400000 0
6.200000 0.400000 0
6.300000 0.400000 0
6.400000 0.400000 0
6.500000 0.400000 0
6.600000 0.400000 0
6.700000 0.400000 0
6.800000 0.400000 0
6.900000 0.400000 0
7.000000 0.400000 0
7.100000 0.400000 0
7.200000 0.400000 0
7.300000 0.400000 0
7.400000 0.400000 0
7.500000 0.400000 0
7.600000 0.400000 0
7.700000 0.400000 0
7.800000 0.400000 0
7.900000 0.400000 0
8.000000 0.400000 0
8.100000 0.400000 0
8.200000 0.400000 0
8.300000 0.400000 0
8.400000 0.400000 0
8.500000 0.400000 0
8.600000 0.400000 0
[...]
POINT_DATA 2121 

VECTORS velocity float
0.500000 0.000000 0
0.000038 0.000000 0
0.000148 0.000000 0
0.000329 0.000000 0
0.000577 0.000000 0
0.000873 0.000000 0
0.001175 0.000000 0
0.001434 0.000000 0
0.001623 0.000000 0
0.001764 0.000000 0
0.001831 0.000000 0
0.001783 0.000000 0
0.001612 0.000000 0
0.001338 0.000000 0
0.000973 0.000000 0
0.000518 0.000000 0
-0.000071 0.000000 0
-0.000822 0.000000 0
-0.001704 0.000000 0
-0.002607 0.000000 0
-0.003352 0.000000 0
-0.003713 0.000000 0
-0.003587 0.000000 0
-0.002984 0.000000 0
-0.002018 0.000000 0
-0.000862 0.000000 0
0.000317 0.000000 0
0.001121 0.000000 0
0.001268 0.000000 0
0.004308 0.000000 0
0.008059 0.000000 0
-0.000166 0.000000 0
-0.002480 0.000000 0
-0.007846 0.000000 0
-0.022123 0.000000 0
-0.002042 0.000000 0
0.042408 0.000000 0
0.043442 0.000000 0
0.024813 0.000000 0
0.013319 0.000000 0
0.006627 0.000000 0
0.000654 0.000000 0
-0.006392 0.000000 0
-0.013984 0.000000 0
-0.019481 0.000000 0
-0.020106 0.000000 0
-0.015905 0.000000 0
-0.010268 0.000000 0
-0.011091 0.000000 0
-0.012749 0.000000 0
-0.013498 0.000000 0
-0.013842 0.000000 0
-0.014080 0.000000 0
-0.014427 0.000000 0
-0.014827 0.000000 0
-0.014994 0.000000 0
-0.014569 0.000000 0
-0.012906 0.000000 0
-0.008378 0.000000 0
0.000942 0.000000 0
0.013964 0.000000 0
0.025760 0.000000 0
0.032470 0.000000 0
0.032056 0.000000 0
0.030911 0.000000 0
0.023495 0.000000 0
0.011379 0.000000 0
0.001256 0.000000 0
-0.000869 0.000000 0
-0.000393 0.000000 0
-0.002320 0.000000 0
-0.003062 0.000000 0
0.001521 0.000000 0
0.003904 0.000000 0
0.003171 0.000000 0
0.001619 0.000000 0
0.001205 0.000000 0
0.003078 0.000000 0
0.006282 0.000000 0
0.008712 0.000000 0
0.007891 0.000000 0
0.005568 0.000000 0
0.003537 0.000000 0
0.002224 0.000000 0
0.001466 0.000000 0
0.000967 0.000000 0
0.000494 0.000000 0
-0.000073 0.000000 0
-0.000772 0.000000 0
-0.001590 0.000000 0
-0.002472 0.000000 0
-0.003367 0.000000 0
-0.004213 0.000000 0
-0.004953 0.000000 0
-0.005608 0.000000 0
-0.006245 0.000000 0
-0.006934 0.000000 0
-0.007839 0.000000 0
-0.008528 0.000000 0
-0.008350 0.000000 0
-0.008481 0.000000 0
1.000000 -0.004927 0
1.010465 -0.015041 0
1.031559 -0.025380 0
1.063180 -0.035383 0
1.104921 -0.044339 0
1.155580 -0.051071 0
1.212319 -0.054000 0
1.270630 -0.051315 0
1.322408 -0.042613 0
1.361353 -0.029912 0
1.385051 -0.015994 0
1.394292 -0.002860 0
1.391187 0.008813 0
1.377359 0.019165 0
1.353668 0.028169 0
1.321203 0.035052 0
1.282509 0.038457 0
1.242020 0.037131 0
1.205515 0.030717 0
1.178808 0.020421 0
1.165473 0.009129 0
1.164618 0.000316 0
1.171303 -0.003624 0
1.179186 -0.002087 0
1.182323 0.003981 0
1.176669 0.012742 0
1.160724 0.021488 0
1.135633 0.025275 0
1.103911 0.027098 0
1.061964 0.058886 0
1.005066 0.065047 0
0.988735 -0.001241 0
1.045002 -0.056040 0
1.111256 -0.101436 0
1.141432 -0.165918 0
1.047265 -0.032170 0
0.814637 0.274531 0
0.567259 0.357210 0
0.409511 0.227504 0
0.316865 0.125355 0
0.248860 0.076603 0
0.206250 0.032519 0
0.206659 -0.038207 0
0.269539 -0.124054 0
0.396352 -0.185057 0
0.570112 -0.194724 0
0.753450 -0.157773 0
0.907396 -0.107201 0
1.016274 -0.087318 0
1.101758 -0.091403 0
1.186273 -0.091306 0
1.268440 -0.088918 0
1.347934 -0.086697 0
1.425311 -0.085506 0
1.501443 -0.084678 0
1.575684 -0.082451 0
1.645122 -0.076785 0
1.704320 -0.064041 0
1.743923 -0.035819 0
1.749198 0.016942 0
1.704167 0.089782 0
1.602542 0.161161 0
1.456348 0.205690 0
1.290434 0.214108 0
1.117898 0.221524 0
0.938348 0.194653 0
0.796039 0.086809 0
0.715304 -0.013553 0
0.652078 -0.031063 0
0.605506 -0.006568 0
0.597680 -0.003501 0
0.642812 -0.007051 0
0.681342 0.010058 0
0.665332 0.021155 0
0.646731 0.008587 0
0.640704 -0.011233 0
0.632408 -0.014923 0
0.604338 0.012685 0
0.549348 0.062751 0
0.474493 0.101637 0
0.399830 0.102356 0
0.343176 0.076672 0
0.305937 0.049993 0
0.281268 0.032214 0
0.263138 0.023268 0
0.248106 0.018980 0
0.234880 0.015441 0
0.224256 0.010923 0
0.218022 0.005125 0
0.217623 -0.001845 0
0.223760 -0.009054 0
0.236853 -0.016348 0
0.256509 -0.023387 0
0.281401 -0.029221 0
0.309796 -0.034231 0
0.339921 -0.038660 0
0.371399 -0.042761 0
0.404897 -0.049369 0
0.438602 -0.052233 0
0.490699 -0.033593 0
0.506188 -0.016824 0
1.000000 -0.010455 0
1.010633 -0.031544 0
1.032391 -0.052707 0
1.065192 -0.073354 0
1.109351 -0.092391 0
1.164779 -0.107391 0
1.228933 -0.115042 0
1.299268 -0.110080 0
1.360591 -0.090716 0
1.403771 -0.062636 0
1.427272 -0.032932 0
1.434457 -0.006129 0
1.429902 0.016939 0
1.415650 0.037524 0
1.391248 0.056160 0
1.356107 0.071163 0
1.312169 0.079186 0
1.264632 0.076996 0
1.221139 0.063213 0
1.190649 0.040042 0
1.179755 0.014189 0
1.187058 -0.005831 0
1.204131 -0.014570 0
1.222109 -0.011023 0
1.232903 0.002514 0
1.231398 0.021596 0
1.216808 0.041033 0
1.191021 0.056809 0
1.153170 0.073664 0
1.110492 0.098840 0
1.099331 0.073224 0
1.023160 -0.039940 0
0.958238 -0.122525 0
1.024343 -0.096433 0
0.842167 0.063988 0
0.471405 0.326792 0
0.278904 0.480003 0
0.310442 0.405123 0
0.384147 0.250392 0
0.416156 0.160649 0
0.414399 0.110612 0
0.411040 0.042198 0
0.420114 -0.063292 0
0.435462 -0.189696 0
0.463623 -0.300576 0
0.530649 -0.357101 0
0.649343 -0.337289 0
0.798940 -0.262830 0
0.937327 -0.194368 0
1.029708 -0.170006 0
1.098260 -0.166691 0
1.163175 -0.161671 0
1.225664 -0.156883 0
1.285235 -0.153521 0
1.342563 -0.150386 0
1.395626 -0.143694 0
1.439469 -0.128651 0
1.467201 -0.098817 0
1.472456 -0.044895 0
1.453092 0.039737 0
1.412033 0.146638 0
1.354438 0.247801 0
1.286965 0.312089 0
1.211014 0.338431 0
1.122699 0.352067 0
1.052526 0.321840 0
0.983844 0.223026 0
0.898580 0.143943 0
0.821486 0.109780 0
0.802774 0.054382 0
0.853762 -0.037321 0
0.781541 -0.083676 0
0.613629 -0.022532 0
0.519716 0.034599 0
0.484310 0.024617 0
0.465429 0.014314 0
0.434786 0.036359 0
0.388721 0.083053 0
0.341307 0.129840 0
0.311239 0.149514 0
0.303662 0.131315 0
0.308531 0.093893 0
0.316644 0.061908 0
0.320863 0.042801 0
0.318537 0.033165 0
0.311193 0.028261 0
0.301514 0.023855 0
0.291971 0.016864 0
0.284623 0.006640 0
0.281454 -0.005730 0
0.284669 -0.019222 0
0.296711 -0.032740 0
0.317600 -0.044538 0
0.346195 -0.053277 0
0.378814 -0.058509 0
0.409685 -0.061593 0
0.433268 -0.064965 0
0.446212 -0.067191 0
0.438274 -0.085790 0
0.449839 -0.067575 0
0.459939 -0.031328 0
1.000000 -0.015554 0
1.009122 -0.047425 0
1.030339 -0.079937 0
1.062704 -0.112340 0
1.108232 -0.143924 0
1.169451 -0.170650 0
1.243863 -0.188487 0
1.341339 -0.182970 0
1.419463 -0.147113 0
1.466638 -0.096591 0
1.485460 -0.046678 0
1.485072 -0.005488 0
1.476147 0.027622 0
1.460936 0.057820 0
1.435216 0.087714 0
1.394149 0.114132 0
1.338473 0.129932 0
1.274854 0.128161 0
1.214169 0.104700 0
1.172809 0.061805 0
1.165771 0.012719 0
1.189254 -0.024060 0
1.224489 -0.038676 0
1.259521 -0.030861 0
1.282643 -0.005309 0
1.286214 0.028836 0
1.269455 0.061863 0
1.236865 0.088912 0
1.194367 0.107625 0
1.154721 0.112724 0
1.125467 0.152378 0
1.045628 0.139850 0
0.933754 -0.057223 0
0.709078 0.014635 0
0.414289 0.387020 0
0.334188 0.531093 0
0.514097 0.435493 0
0.641538 0.251966 0
0.570231 0.121789 0
0.472847 0.095104 0
0.425792 0.081719 0
0.417993 0.026803 0
0.442476 -0.062629 0
0.484457 -0.167564 0
0.524607 -0.280246 0
0.563357 -0.380445 0
0.618076 -0.426067 0
0.706012 -0.395189 0
0.821888 -0.318089 0
0.929091 -0.252340 0
1.004341 -0.224778 0
1.057538 -0.216327 0
1.100802 -0.208762 0
1.140991 -0.202411 0
1.179302 -0.195075 0
1.213650 -0.179364 0
1.238335 -0.148367 0
1.246498 -0.097036 0
1.234395 -0.021718 0
1.206794 0.077358 0
1.174986 0.188427 0
1.151579 0.286221 0
1.138814 0.349107 0
1.123525 0.378367 0
1.105485 0.380005 0
1.101261 0.333501 0
1.089638 0.240748 0
1.072465 0.148798 0
1.103542 0.064736 0
1.157159 -0.038850 0
1.060874 0.017726 0
0.846170 0.233077 0
0.644240 0.271878 0
0.542023 0.150471 0
0.478041 0.062871 0
0.431536 0.038288 0
0.392942 0.061784 0
0.358327 0.106162 0
0.335355 0.140232 0
0.335936 0.139281 0
0.358620 0.105063 0
0.389376 0.063691 0
0.417326 0.037661 0
0.434681 0.030322 0
0.436521 0.032940 0
0.423846 0.036005 0
0.402212 0.034665 0
0.377845 0.027817 0
0.356495 0.015645 0
0.342187 -0.001888 0
0.338628 -0.024307 0
0.347290 -0.049275 0
0.368765 -0.072867 0
0.402638 -0.090431 0
0.446932 -0.097717 0
0.498751 -0.093111 0
0.550056 -0.079284 0
0.599372 -0.054370 0
0.631541 -0.055856 0
0.603527 -0.055254 0
0.608108 -0.037501 0
1.000000 -0.019571 0
1.004791 -0.061878 0
1.026036 -0.106288 0
1.055502 -0.151245 0
1.099829 -0.199137 0
1.165786 -0.243021 0
1.252394 -0.286928 0
1.413734 -0.285679 0
1.513343 -0.216013 0
1.556016 -0.128631 0
1.562390 -0.051364 0
1.546376 0.003185 0
1.529720 0.041077 0
1.520195 0.078457 0
1.502909 0.122948 0
1.455144 0.167907 0
1.381027 0.198482 0
1.291116 0.201300 0
1.199778 0.165258 0
1.134914 0.088440 0
1.129872 -0.002256 0
1.178855 -0.064550 0
1.232102 -0.084837 0
1.286333 -0.069177 0
1.328996 -0.024180 0
1.346772 0.034783 0
1.334413 0.090380 0
1.298935 0.131896 0
1.248175 0.155807 0
1.184936 0.167740 0
1.110349 0.182317 0
1.082261 0.151772 0
0.996775 0.214025 0
0.643953 0.423031 0
0.451166 0.438878 0
0.516846 0.226984 0
0.595401 0.172653 0
0.494960 0.348989 0
0.291841 0.419083 0
0.148001 0.305088 0
0.078795 0.165466 0
0.069195 0.025514 0
0.115818 -0.129756 0
0.209579 -0.271828 0
0.318025 -0.379477 0
0.420654 -0.450572 0
0.516745 -0.479946 0
0.605907 -0.466645 0
0.694415 -0.417450 0
0.784475 -0.352464 0
0.865191 -0.295143 0
0.923721 -0.258137 0
0.962349 -0.240341 0
0.987991 -0.232027 0
1.007189 -0.223051 0
1.024447 -0.202734 0
1.037668 -0.161507 0
1.044093 -0.094885 0
1.040826 -0.005199 0
1.032047 0.099139 0
1.030779 0.201845 0
1.045231 0.283964 0
1.076631 0.340135 0
1.105845 0.371752 0
1.128499 0.374324 0
1.142413 0.337680 0
1.137125 0.251815 0
1.139208 0.130033 0
1.132785 0.025080 0
1.020221 0.097044 0
0.786127 0.273662 0
0.650827 0.332952 0
0.630307 0.281610 0
0.583908 0.200795 0
0.520494 0.135101 0
0.468862 0.099410 0
0.433616 0.109565 0
0.413967 0.140639 0
0.414475 0.152230 0
0.435027 0.126248 0
0.461074 0.077874 0
0.476049 0.035187 0
0.474855 0.016604 0
0.461167 0.023607 0
0.440395 0.044001 0
0.417264 0.062572 0
0.395314 0.069858 0
0.377614 0.062584 0
0.367376 0.042301 0
0.366772 0.012140 0
0.376335 -0.024321 0
0.393847 -0.062874 0
0.414941 -0.099883 0
0.437944 -0.131439 0
0.464420 -0.154619 0
0.499365 -0.164713 0
0.542921 -0.165582 0
0.596229 -0.148672 0
0.669173 -0.089941 0
0.708015 -0.044138 0
0.719237 -0.040041 0
1.000000 -0.020340 0
0.999387 -0.073456 0
1.015959 -0.130647 0
1.039460 -0.186132 0
1.077569 -0.254208 0
1.137574 -0.323214 0
1.240399 -0.436433 0
1.532850 -0.443918 0
1.619464 -0.289393 0
1.622381 -0.145636 0
1.605727 -0.037036 0
1.560870 0.027184 0
1.533583 0.053804 0
1.539109 0.084632 0
1.560072 0.152766 0
1.528254 0.236014 0
1.442254 0.293960 0
1.318375 0.309411 0
1.168961 0.260903 0
0.950395 0.131711 0
0.950388 -0.031222 0
1.062535 -0.126291 0
1.098549 -0.146154 0
1.143939 -0.127756 0
1.206040 -0.065749 0
1.267925 0.023419 0
1.294116 0.109700 0
1.291947 0.175150 0
1.275974 0.221624 0
1.233695 0.250549 0
1.169999 0.255051 0
1.098850 0.253424 0
0.959029 0.381085 0
0.848862 0.560244 0
0.816948 0.514126 0
0.716662 0.386858 0
0.461381 0.457379 0
0.247087 0.555526 0
0.213404 0.468748 0
0.224855 0.308149 0
0.218762 0.160525 0
0.224289 -0.010220 0
0.256679 -0.203014 0
0.307952 -0.369773 0
0.340522 -0.491322 0
0.354205 -0.579167 0
0.401226 -0.611322 0
0.494520 -0.572862 0
0.597892 -0.496660 0
0.677867 -0.423120 0
0.727271 -0.364029 0
0.763893 -0.313491 0
0.796370 -0.273037 0
0.827771 -0.247257 0
0.858049 -0.231538 0
0.882661 -0.209849 0
0.898576 -0.168021 0
0.905022 -0.100201 0
0.908811 -0.009679 0
0.920569 0.087396 0
0.948172 0.175236 0
0.989471 0.240361 0
1.036567 0.288484 0
1.079915 0.326490 0
1.114322 0.343429 0
1.133136 0.324867 0
1.124697 0.243945 0
1.064667 0.153131 0
0.947720 0.183717 0
0.764157 0.307802 0
0.655712 0.387115 0
0.598553 0.388892 0
0.554263 0.338793 0
0.514686 0.260280 0
0.497945 0.177913 0
0.493640 0.125163 0
0.498690 0.116676 0
0.518193 0.125301 0
0.552992 0.119170 0
0.590696 0.092681 0
0.611941 0.064041 0
0.606583 0.049910 0
0.578847 0.052543 0
0.543911 0.064783 0
0.517605 0.076845 0
0.508927 0.081088 0
0.516745 0.074317 0
0.536131 0.055757 0
0.563995 0.026490 0
0.596401 -0.010845 0
0.632553 -0.051379 0
0.670006 -0.087877 0
0.699853 -0.116960 0
0.721897 -0.139907 0
0.733622 -0.159134 0
0.730549 -0.171608 0
0.714263 -0.176144 0
0.686829 -0.180618 0
0.661194 -0.167638 0
0.691811 -0.105315 0
0.701032 -0.059583 0
1.000000 -0.018955 0
1.001230 -0.077834 0
1.004495 -0.146362 0
1.006266 -0.212854 0
1.037124 -0.297250 0
1.062675 -0.405851 0
1.213304 -0.682203 0
1.573530 -0.664742 0
1.491892 -0.305542 0
1.387593 -0.114892 0
1.350712 0.010149 0
1.321630 0.075331 0
1.199276 0.062839 0
1.272422 0.051969 0
1.391454 0.133804 0
1.427492 0.285726 0
1.387635 0.408361 0
1.247349 0.474594 0
1.180140 0.533239 0
1.064643 0.307013 0
0.745666 -0.114397 0
0.592570 -0.212711 0
0.406230 -0.166241 0
0.477245 -0.176669 0
0.589773 -0.148167 0
0.773521 -0.053293 0
0.958176 0.066358 0
1.090097 0.150037 0
1.148712 0.214059 0
1.165408 0.273715 0
1.161836 0.317162 0
1.122781 0.362742 0
1.047855 0.464013 0
1.044311 0.565112 0
1.065409 0.571078 0
0.974072 0.582550 0
0.828362 0.642228 0
0.780592 0.596966 0
0.799029 0.441315 0
0.811380 0.299731 0
0.831995 0.166032 0
0.857892 -0.012404 0
0.840537 -0.213420 0
0.755517 -0.355672 0
0.659060 -0.425732 0
0.547419 -0.511279 0
0.453837 -0.620263 0
0.436434 -0.663315 0
0.512821 -0.600801 0
0.623866 -0.481846 0
0.692072 -0.381174 0
0.701168 -0.327241 0
0.692105 -0.304225 0
0.698053 -0.293712 0
0.724857 -0.277948 0
0.767156 -0.243268 0
0.815024 -0.183875 0
0.854301 -0.105127 0
0.882376 -0.020753 0
0.910640 0.059770 0
0.948614 0.132935 0
0.993927 0.195561 0
1.029908 0.249683 0
1.056110 0.293989 0
1.069525 0.321095 0
1.067475 0.327298 0
1.030613 0.320276 0
0.916225 0.307003 0
0.768304 0.325583 0
0.663492 0.389046 0
0.603800 0.439261 0
0.571555 0.434396 0
0.567737 0.365473 0
0.584757 0.257109 0
0.616165 0.156144 0
0.643155 0.098662 0
0.665857 0.085009 0
0.692741 0.086334 0
0.724757 0.079725 0
0.752111 0.067298 0
0.766290 0.061987 0
0.770153 0.068281 0
0.770204 0.079277 0
0.775924 0.084850 0
0.792181 0.078986 0
0.816833 0.063433 0
0.846679 0.042656 0
0.882222 0.015336 0
0.920450 -0.017966 0
0.957174 -0.056416 0
0.988232 -0.097923 0
1.010696 -0.130170 0
1.023483 -0.151770 0
1.027157 -0.165205 0
1.022127 -0.163267 0
1.007479 -0.145349 0
0.986509 -0.121859 0
0.959738 -0.095599 0
0.922930 -0.094919 0
0.892215 -0.083972 0
0.889883 -0.059996 0
1.000000 -0.021569 0
1.003011 -0.077951 0
0.994245 -0.135683 0
0.977652 -0.218761 0
0.990926 -0.310617 0
0.951245 -0.499395 0
1.074469 -0.947288 0
0.770387 -0.619050 0
0.001196 0.000000 0
0.001094 0.000000 0
0.546893 0.033382 0
0.590546 0.178621 0
0.462815 0.103013 0
0.822396 -0.107544 0
0.677825 -0.002303 0
0.746179 0.239834 0
0.978765 0.474104 0
0.956776 0.516906 0
0.874420 0.443609 0
0.695754 0.566185 0
0.180052 0.440851 0
-0.136266 0.213146 0
-0.183654 -0.030828 0
-0.198178 -0.311299 0
-0.082186 -0.362026 0
0.132116 -0.344984 0
0.426809 -0.206877 0
0.702179 -0.015386 0
0.886375 0.146314 0
0.997722 0.237426 0
1.050081 0.297678 0
1.072146 0.367405 0
1.091492 0.459556 0
1.141224 0.542690 0
1.184088 0.584365 0
1.180727 0.623906 0
1.189984 0.650860 0
1.232614 0.584861 0
1.251623 0.437961 0
1.254495 0.275183 0
1.266616 0.114013 0
1.257475 -0.018762 0
1.181353 -0.100640 0
0.998155 -0.188297 0
0.769575 -0.283225 0
0.653322 -0.373947 0
0.579404 -0.500339 0
0.514737 -0.631849 0
0.503821 -0.684097 0
0.576319 -0.602374 0
0.689555 -0.441336 0
0.762040 -0.313529 0
0.778339 -0.269928 0
0.768793 -0.280016 0
0.752574 -0.300647 0
0.747595 -0.300022 0
0.778356 -0.255173 0
0.843274 -0.167562 0
0.910680 -0.066026 0
0.955448 0.021151 0
0.996003 0.091940 0
1.038942 0.159059 0
1.071271 0.226294 0
1.089339 0.286865 0
1.088993 0.332056 0
1.069911 0.363772 0
1.027232 0.395188 0
0.961386 0.415434 0
0.859892 0.436444 0
0.756935 0.472300 0
0.701390 0.479047 0
0.708231 0.424949 0
0.751980 0.325586 0
0.797206 0.211848 0
0.824693 0.119511 0
0.828277 0.075467 0
0.830663 0.067088 0
0.844073 0.066399 0
0.866043 0.059799 0
0.887499 0.051146 0
0.905949 0.045999 0
0.924879 0.045996 0
0.951244 0.046772 0
0.986266 0.042807 0
1.026484 0.035938 0
1.066451 0.026591 0
1.104955 0.008930 0
1.142632 -0.018012 0
1.176251 -0.048460 0
1.203649 -0.078623 0
1.219082 -0.104898 0
1.219503 -0.123126 0
1.208828 -0.133419 0
1.184057 -0.138548 0
1.147387 -0.139453 0
1.107143 -0.135986 0
1.073810 -0.128400 0
1.052309 -0.117036 0
1.050749 -0.100111 0
1.038925 -0.072264 0
1.038610 -0.055002 0
1.000000 -0.021966 0
1.001397 -0.072079 0
0.975676 -0.121004 0
0.974608 -0.209536 0
0.915342 -0.270843 0
0.879007 -0.489394 0
0.685715 -0.604799 0
0.000000 -0.007057 0
-0.656134 0.240546 0
-0.567205 0.000000 0
0.000000 0.000000 0
0.041025 0.167053 0
0.175249 -0.169009 0
0.285040 -0.163040 0
0.442264 0.210023 0
0.393596 -0.015213 0
0.271521 0.197765 0
0.226023 0.578939 0
-0.039058 0.794261 0
-0.207125 1.001381 0
-0.227966 0.717623 0
-0.378950 0.150995 0
-0.163738 -0.104329 0
-0.201757 -0.278137 0
-0.166179 -0.478461 0
-0.098709 -0.562288 0
0.072998 -0.503705 0
0.337974 -0.309529 0
0.608238 -0.081484 0
0.823844 0.110010 0
0.949863 0.242739 0
1.014690 0.321332 0
1.079276 0.394936 0
1.165674 0.472516 0
1.248693 0.531575 0
1.313627 0.576656 0
1.384981 0.590342 0
1.458116 0.535328 0
1.496145 0.419435 0
1.493198 0.284739 0
1.442856 0.163051 0
1.344141 0.072859 0
1.236754 0.045899 0
1.141785 0.056104 0
1.013894 -0.080901 0
0.877344 -0.321109 0
0.762204 -0.481681 0
0.710776 -0.587735 0
0.659287 -0.662387 0
0.617037 -0.667586 0
0.653548 -0.566899 0
0.758309 -0.416029 0
0.846359 -0.310984 0
0.874712 -0.267954 0
0.862419 -0.256757 0
0.835318 -0.269057 0
0.814255 -0.279561 0
0.828743 -0.237459 0
0.898118 -0.132935 0
0.979444 -0.025561 0
1.026320 0.049432 0
1.071448 0.120286 0
1.110467 0.199278 0
1.138970 0.276260 0
1.150270 0.340515 0
1.141079 0.389051 0
1.110992 0.428794 0
1.066897 0.474336 0
0.999020 0.530027 0
0.942213 0.547542 0
0.932305 0.487960 0
0.962162 0.383802 0
0.997251 0.276492 0
1.015097 0.184392 0
1.005287 0.125070 0
0.982372 0.092689 0
0.968518 0.069210 0
0.969686 0.050952 0
0.980298 0.036297 0
0.993946 0.027391 0
1.009400 0.024606 0
1.027644 0.022985 0
1.052518 0.017891 0
1.082535 0.009610 0
1.116239 -0.001199 0
1.154051 -0.015036 0
1.194842 -0.033524 0
1.232994 -0.055959 0
1.265194 -0.078981 0
1.289221 -0.099244 0
1.302700 -0.113774 0
1.304206 -0.119914 0
1.293841 -0.116321 0
1.271136 -0.103762 0
1.237716 -0.086351 0
1.198273 -0.071769 0
1.159687 -0.067021 0
1.127352 -0.072535 0
1.103285 -0.081532 0
1.088415 -0.071829 0
1.085756 -0.059489 0
1.000000 -0.022968 0
0.991012 -0.053628 0
0.970557 -0.108895 0
0.957041 -0.158429 0
0.873289 -0.215017 0
0.834652 -0.269769 0
0.485897 -0.160172 0
0.317111 -0.025226 0
0.000000 0.000000 0
0.000000 0.000000 0
0.000000 0.000000 0
0.000000 0.000000 0
0.156038 -0.152017 0
-0.178492 -0.374558 0
0.128468 -0.110858 0
0.177117 0.410578 0
-0.370597 0.641677 0
-0.482853 0.827485 0
-0.594421 0.876757 0
-0.528599 0.755094 0
-0.174331 0.612676 0
0.005989 0.148917 0
0.028312 -0.208021 0
0.120926 -0.308858 0
0.169058 -0.465074 0
0.168797 -0.584160 0
0.155563 -0.643559 0
0.241312 -0.550626 0
0.428179 -0.339555 0
0.651345 -0.104199 0
0.844740 0.106833 0
0.967634 0.237992 0
1.049121 0.308573 0
1.150275 0.373275 0
1.255519 0.436413 0
1.354230 0.487619 0
1.448947 0.506372 0
1.528488 0.473697 0
1.568779 0.402880 0
1.557360 0.328472 0
1.499365 0.263069 0
1.418694 0.187340 0
1.346589 0.101715 0
1.314827 0.034561 0
1.298177 -0.018786 0
1.178639 -0.122259 0
1.046095 -0.333774 0
0.968318 -0.528935 0
0.907467 -0.590361 0
0.780915 -0.596639 0
0.641632 -0.582613 0
0.593021 -0.506346 0
0.629680 -0.386336 0
0.688745 -0.296082 0
0.745361 -0.261260 0
0.797094 -0.251866 0
0.830375 -0.248606 0
0.848707 -0.251433 0
0.878572 -0.216735 0
0.939599 -0.107060 0
1.003861 -0.000072 0
1.051376 0.074905 0
1.090925 0.158763 0
1.123943 0.247054 0