# vtk DataFile Version 2.0
generated by CFD-lab course output (written by Tobias Neckel) 
ASCII

DATASET STRUCTURED_GRID
DIMENSIONS  101 21 1 
POINTS 2121 float

0.000000 0.000000 0
0.100000 0.000000 0
0.200000 0.000000 0
0.300000 0.000000 0
0.400000 0.000000 0
0.500000 0.000000 0
0.600000 0.000000 0
0.700000 0.000000 0
0.800000 0.000000 0
0.900000 0.000000 0
1.000000 0.000000 0
1.100000 0.000000 0
1.200000 0.000000 0
1.300000 0.000000 0
1.400000 0.000000 0
1.500000 0.000000 0
1.600000 0.000000 0
1.700000 0.000000 0
1.800000 0.000000 0
1.900000 0.000000 0
2.000000 0.000000 0
2.100000 0.000000 0
2.200000 0.000000 0
2.300000 0.000000 0
2.400000 0.000000 0
2.500000 0.000000 0
2.600000 0.000000 0
2.700000 0.000000 0
2.800000 0.000000 0
2.900000 0.000000 0
3.000000 0.000000 0
3.100000 0.000000 0
3.200000 0.000000 0
3.300000 0.000000 0
3.400000 0.000000 0
3.500000 0.000000 0
3.600000 0.000000 0
3.700000 0.000000 0
3.800000 0.000000 0
3.900000 0.000000 0
4.000000 0.000000 0
4.100000 0.000000 0
4.200000 0.000000 0
4.300000 0.000000 0
4.400000 0.000000 0
4.500000 0.000000 0
4.600000 0.000000 0
4.700000 0.000000 0
4.800000 0.000000 0
4.900000 0.000000 0
5.000000 0.000000 0
5.100000 0.000000 0
5.200000 0.000000 0
5.300000 0.000000 0
5.400000 0.000000 0
5.500000 0.000000 0
5.600000 0.000000 0
5.700000 0.000000 0
5.800000 0.000000 0
5.900000 0.000000 0
6.000000 0.000000 0
6.100000 0.000000 0
6.200000 0.000000 0
6.300000 0.000000 0
6.400000 0.000000 0
6.500000 0.000000 0
6.600000 0.000000 0
6.700000 0.000000 0
6.800000 0.000000 0
6.900000 0.000000 0
7.000000 0.000000 0
7.100000 0.000000 0
7.200000 0.000000 0
7.300000 0.000000 0
7.400000 0.000000 0
7.500000 0.000000 0
7.600000 0.000000 0
7.700000 0.000000 0
7.800000 0.000000 0
7.900000 0.000000 0
8.000000 0.000000 0
8.100000 0.000000 0
8.200000 0.000000 0
8.300000 0.000000 0
8.400000 0.000000 0
8.500000 0.000000 0
8.600000 0.000000 0
8.700000 0.000000 0
8.800000 0.000000 0
8.900000 0.000000 0
9.000000 0.000000 0
9.100000 0.000000 0
9.200000 0.000000 0
9.300000 0.000000 0
9.400000 0.000000 0
9.500000 0.000000 0
9.600000 0.000000 0
9.700000 0.000000 0
9.800000 0.000000 0
9.900000 0.000000 0
10.000000 0.000000 0
0.000000 0.100000 0
0.100000 0.100000 0
0.200000 0.100000 0
0.300000 0.100000 0
0.400000 0.100000 0
0.500000 0.100000 0
0.600000 0.100000 0
0.700000 0.100000 0
0.800000 0.100000 0
0.900000 0.100000 0
1.000000 0.100000 0
1.100000 0.100000 0
1.200000 0.100000 0
1.300000 0.100000 0
1.400000 0.100000 0
1.500000 0.100000 0
1.600000 0.100000 0
1.700000 0.100000 0
1.800000 0.100000 0
1.900000 0.100000 0
2.000000 0.100000 0
2.100000 0.100000 0
2.200000 0.100000 0
2.300000 0.100000 0
2.400000 0.100000 0
2.500000 0.100000 0
2.600000 0.100000 0
2.700000 0.100000 0
2.800000 0.100000 0
2.900000 0.100000 0
3.000000 0.100000 0
3.100000 0.100000 0
3.200000 0.100000 0
3.300000 0.100000 0
3.400000 0.100000 0
3.500000 0.100000 0
3.600000 0.100000 0
3.700000 0.100000 0
3.800000 0.100000 0
3.900000 0.100000 0
4.000000 0.100000 0
4.100000 0.100000 0
4.200000 0.100000 0
4.300000 0.100000 0
4.400000 0.100000 0
4.500000 0.100000 0
4.600000 0.100000 0
4.700000 0.100000 0
4.800000 0.100000 0
4.900000 0.100000 0
5.000000 0.100000 0
5.100000 0.100000 0
5.200000 0.100000 0
5.300000 0.100000 0
5.400000 0.100000 0
5.500000 0.100000 0
5.600000 0.100000 0
5.700000 0.100000 0
5.800000 0.100000 0
5.900000 0.100000 0
6.000000 0.100000 0
6.100000 0.100000 0
6.200000 0.100000 0
6.300000 0.100000 0
6.400000 0.100000 0
6.500000 0.100000 0
6.600000 0.100000 0
6.700000 0.100000 0
6.800000 0.100000 0
6.900000 0.100000 0
7.000000 0.100000 0
7.100000 0.100000 0
7.200000 0.100000 0
7.300000 0.100000 0
7.400000 0.100000 0
7.500000 0.100000 0
7.600000 0.100000 0
7.700000 0.100000 0
7.800000 0.100000 0
7.900000 0.100000 0
8.000000 0.100000 0
8.100000 0.100000 0
8.200000 0.100000 0
8.300000 0.100000 0
8.400000 0.100000 0
8.500000 0.100000 0
8.600000 0.100000 0
8.700000 0.100000 0
8.800000 0.100000 0
8.900000 0.100000 0
9.000000 0.100000 0
9.100000 0.100000 0
9.200000 0.100000 0
9.300000 0.100000 0
9.400000 0.100000 0
9.500000 0.100000 0
9.600000 0.100000 0
9.700000 0.100000 0
9.800000 0.100000 0
9.900000 0.100000 0
10.000000 0.100000 0
0.000000 0.200000 0
0.100000 0.200000 0
0.200000 0.200000 0
0.300000 0.200000 0
0.400000 0.200000 0
0.500000 0.200000 0
0.600000 0.200000 0
0.700000 0.200000 0
0.800000 0.200000 0
0.900000 0.200000 0
1.000000 0.200000 0
1.100000 0.200000 0
1.200000 0.200000 0
1.300000 0.200000 0
1.400000 0.200000 0
1.500000 0.200000 0
1.600000 0.200000 0
1.700000 0.200000 0
1.800000 0.200000 0
1.900000 0.200000 0
2.000000 0.200000 0
2.100000 0.200000 0
2.200000 0.200000 0
2.300000 0.200000 0
2.400000 0.200000 0
2.500000 0.200000 0
2.600000 0.200000 0
2.700000 0.200000 0
2.800000 0.200000 0
2.900000 0.200000 0
3.000000 0.200000 0
3.100000 0.200000 0
3.200000 0.200000 0
3.300000 0.200000 0
3.400000 0.200000 0
3.500000 0.200000 0
3.600000 0.200000 0
3.700000 0.200000 0
3.800000 0.200000 0
3.900000 0.200000 0
4.000000 0.200000 0
4.100000 0.200000 0
4.200000 0.200000 0
4.300000 0.200000 0
4.400000 0.200000 0
4.500000 0.200000 0
4.600000 0.200000 0
4.700000 0.200000 0
4.800000 0.200000 0
4.900000 0.200000 0
5.000000 0.200000 0
5.100000 0.200000 0
5.200000 0.200000 0
5.300000 0.200000 0
5.400000 0.200000 0
5.500000 0.200000 0
5.600000 0.200000 0
5.700000 0.200000 0
5.800000 0.200000 0
5.900000 0.200000 0
6.000000 0.200000 0
6.100000 0.200000 0
6.200000 0.200000 0
6.300000 0.200000 0
6.400000 0.200000 0
6.500000 0.200000 0
6.600000 0.200000 0
6.700000 0.200000 0
6.800000 0.200000 0
6.900000 0.200000 0
7.000000 0.200000 0
7.100000 0.200000 0
7.200000 0.200000 0
7.300000 0.200000 0
7.400000 0.200000 0
7.500000 0.200000 0
7.600000 0.200000 0
7.700000 0.200000 0
7.800000 0.200000 0
7.900000 0.200000 0
8.000000 0.200000 0
8.100000 0.200000 0
8.200000 0.200000 0
8.300000 0.200000 0
8.400000 0.200000 0
8.500000 0.200000 0
8.600000 0.200000 0
8.700000 0.200000 0
8.800000 0.200000 0
8.900000 0.200000 0
9.000000 0.200000 0
9.100000 0.200000 0
9.200000 0.200000 0
9.300000 0.200000 0
9.400000 0.200000 0
9.500000 0.200000 0
9.600000 0.200000 0
9.700000 0.200000 0
9.800000 0.200000 0
9.900000 0.200000 0
10.000000 0.200000 0
0.000000 0.300000 0
0.100000 0.300000 0
0.200000 0.300000 0
0.300000 0.300000 0
0.400000 0.300000 0
0.500000 0.300000 0
0.600000 0.300000 0
0.700000 0.300000 0
0.800000 0.300000 0
0.900000 0.300000 0
1.000000 0.300000 0
1.100000 0.300000 0
1.200000 0.300000 0
1.300000 0.300000 0
1.400000 0.300000 0
1.500000 0.300000 0
1.600000 0.300000 0
1.700000 0.300000 0
1.800000 0.300000 0
1.900000 0.300000 0
2.000000 0.300000 0
2.100000 0.300000 0
2.200000 0.300000 0
2.300000 0.300000 0
2.400000 0.300000 0
2.500000 0.300000 0
2.600000 0.300000 0
2.700000 0.300000 0
2.800000 0.300000 0
2.900000 0.300000 0
3.000000 0.300000 0
3.100000 0.300000 0
3.200000 0.300000 0
3.300000 0.300000 0
3.400000 0.300000 0
3.500000 0.300000 0
3.600000 0.300000 0
3.700000 0.300000 0
3.800000 0.300000 0
3.900000 0.300000 0
4.000000 0.300000 0
4.100000 0.300000 0
4.200000 0.300000 0
4.300000 0.300000 0
4.400000 0.300000 0
4.500000 0.300000 0
4.600000 0.300000 0
4.700000 0.300000 0
4.800000 0.300000 0
4.900000 0.300000 0
5.000000 0.300000 0
5.100000 0.300000 0
5.200000 0.300000 0
5.300000 0.300000 0
5.400000 0.300000 0
5.500000 0.300000 0
5.600000 0.300000 0
5.700000 0.300000 0
5.800000 0.300000 0
5.900000 0.300000 0
6.000000 0.300000 0
6.100000 0.300000 0
6.200000 0.300000 0
6.300000 0.300000 0
6.400000 0.300000 0
6.500000 0.300000 0
6.600000 0.300000 0
6.700000 0.300000 0
6.800000 0.300000 0
6.900000 0.300000 0
7.000000 0.300000 0
7.100000 0.300000 0
7.200000 0.300000 0
7.300000 0.300000 0
7.400000 0.300000 0
7.500000 0.300000 0
7.600000 0.300000 0
7.700000 0.300000 0
7.800000 0.300000 0
7.900000 0.300000 0
8.000000 0.300000 0
8.100000 0.300000 0
8.200000 0.300000 0
8.300000 0.300000 0
8.400000 0.300000 0
8.500000 0.300000 0
8.600000 0.300000 0
8.700000 0.300000 0
8.800000 0.300000 0
8.900000 0.300000 0
9.000000 0.300000 0
9.100000 0.300000 0
9.200000 0.300000 0
9.300000 0.300000 0
9.400000 0.300000 0
9.500000 0.300000 0
9.600000 0.300000 0
9.700000 0.300000 0
9.800000 0.300000 0
9.900000 0.300000 0
10.000000 0.300000 0
0.000000 0.400000 0
0.100000 0.400000 0
0.200000 0.400000 0
0.300000 0.400000 0
0.400000 0.400000 0
0.500000 0.400000 0
0.600000 0.400000 0
0.700000 0.400000 0
0.800000 0.400000 0
0.900000 0.400000 0
1.000000 0.400000 0
1.100000 0.400000 0
1.200000 0.400000 0
1.300000 0.400000 0
1.400000 0.400000 0
1.500000 0.400000 0
1.600000 0.400000 0
1.700000 0.400000 0
1.800000 0.400000 0
1.900000 0.400000 0
2.000000 0.400000 0
2.100000 0.400000 0
2.200000 0.400000 0
2.300000 0.400000 0
2.400000 0.400000 0
2.500000 0.400000 0
2.600000 0.400000 0
2.700000 0.400000 0
2.800000 0.400000 0
2.900000 0.400000 0
3.000000 0.400000 0
3.100000 0.400000 0
3.200000 0.400000 0
3.300000 0.400000 0
3.400000 0.400000 0
3.500000 0.400000 0
3.600000 0.400000 0
3.700000 0.400000 0
3.800000 0.400000 0
3.900000 0.400000 0
4.000000 0.400000 0
4.100000 0.400000 0
4.200000 0.400000 0
4.300000 0.400000 0
4.400000 0.400000 0
4.500000 0.400000 0
4.600000 0.400000 0
4.700000 0.400000 0
4.800000 0.400000 0
4.900000 0.400000 0
5.000000 0.400000 0
5.100000 0.400000 0
5.200000 0.400000 0
5.300000 0.400000 0
5.400000 0.400000 0
5.500000 0.400000 0
5.600000 0.400000 0
5.700000 0.400000 0
5.800000 0.400000 0
5.900000 0.400000 0
6.000000 0.400000 0
6.100000 0.400000 0
6.200000 0.400000 0
6.300000 0.400000 0
6.400000 0.400000 0
6.500000 0.400000 0
6.600000 0.400000 0
6.700000 0.400000 0
6.800000 0.400000 0
6.900000 0.400000 0
7.000000 0.400000 0
7.100000 0.400000 0
7.200000 0.400000 0
7.300000 0.400000 0
7.400000 0.400000 0
7.500000 0.400000 0
7.600000 0.400000 0
7.700000 0.400000 0
7.800000 0.400000 0
7.900000 0.400000 0
8.000000 0.400000 0
8.100000 0.400000 0
8.200000 0.400000 0
8.300000 0.400000 0
8.400000 0.400000 0
8.500000 0.400000 0
8.600000 0.400000 0
[...]
POINT_DATA 2121 

VECTORS velocity float
0.500000 0.000000 0
0.000006 0.000000 0
-0.000003 0.000000 0
-0.000020 0.000000 0
-0.000049 0.000000 0
-0.000092 0.000000 0
-0.000151 0.000000 0
-0.000226 0.000000 0
-0.000313 0.000000 0
-0.000421 0.000000 0
-0.000564 0.000000 0
-0.000762 0.000000 0
-0.001026 0.000000 0
-0.001332 0.000000 0
-0.001586 0.000000 0
-0.001620 0.000000 0
-0.001289 0.000000 0
-0.000616 0.000000 0
0.000271 0.000000 0
0.001219 0.000000 0
0.002127 0.000000 0
0.002967 0.000000 0
0.003327 0.000000 0
0.003353 0.000000 0
0.011134 0.000000 0
0.008667 0.000000 0
-0.010092 0.000000 0
0.006675 0.000000 0
0.026221 0.000000 0
0.026805 0.000000 0
0.020529 0.000000 0
0.010659 0.000000 0
0.000963 0.000000 0
-0.007307 0.000000 0
-0.015191 0.000000 0
-0.022989 0.000000 0
-0.027759 0.000000 0
-0.025857 0.000000 0
-0.020096 0.000000 0
-0.023912 0.000000 0
-0.025047 0.000000 0
-0.025083 0.000000 0
-0.024927 0.000000 0
-0.021661 0.000000 0
-0.012881 0.000000 0
-0.004424 0.000000 0
0.007956 0.000000 0
0.023044 0.000000 0
0.031616 0.000000 0
0.031820 0.000000 0
0.025413 0.000000 0
0.017750 0.000000 0
0.011555 0.000000 0
0.007011 0.000000 0
0.003579 0.000000 0
0.004686 0.000000 0
0.011867 0.000000 0
0.006680 0.000000 0
0.005374 0.000000 0
0.007808 0.000000 0
0.001081 0.000000 0
-0.006658 0.000000 0
-0.009425 0.000000 0
-0.005674 0.000000 0
0.001917 0.000000 0
0.007579 0.000000 0
0.009675 0.000000 0
0.007385 0.000000 0
0.003118 0.000000 0
-0.000109 0.000000 0
-0.001196 0.000000 0
-0.001048 0.000000 0
0.000246 0.000000 0
0.003583 0.000000 0
0.005942 0.000000 0
0.006077 0.000000 0
0.004649 0.000000 0
0.002898 0.000000 0
0.001464 0.000000 0
0.000339 0.000000 0
-0.000581 0.000000 0
-0.001426 0.000000 0
-0.002335 0.000000 0
-0.003256 0.000000 0
-0.004179 0.000000 0
-0.005122 0.000000 0
-0.006052 0.000000 0
-0.007034 0.000000 0
-0.007990 0.000000 0
-0.009071 0.000000 0
-0.010092 0.000000 0
-0.010581 0.000000 0
-0.009979 0.000000 0
-0.008240 0.000000 0
-0.006204 0.000000 0
-0.006525 0.000000 0
-0.007762 0.000000 0
-0.007466 0.000000 0
-0.007273 0.000000 0
-0.006838 0.000000 0
-0.006552 0.000000 0
1.000000 -0.002937 0
1.006447 -0.009290 0
1.019877 -0.016473 0
1.040989 -0.024202 0
1.070343 -0.031987 0
1.107898 -0.038901 0
1.152382 -0.043602 0
1.200905 -0.044508 0
1.247652 -0.041181 0
1.288220 -0.034955 0
1.320832 -0.027569 0
1.345292 -0.020407 0
1.362539 -0.014544 0
1.374805 -0.010459 0
1.384530 -0.007496 0
1.392623 -0.003895 0
1.397142 0.002302 0
1.393644 0.011795 0
1.378642 0.023842 0
1.349813 0.036820 0
1.307354 0.049162 0
1.253169 0.059106 0
1.190212 0.061198 0
1.119461 0.076174 0
1.033406 0.146678 0
0.966163 0.092998 0
0.926392 -0.072795 0
0.711669 -0.020186 0
0.494005 0.162415 0
0.334391 0.244433 0
0.166535 0.224407 0
0.038495 0.136028 0
0.003091 0.025468 0
0.038986 -0.066158 0
0.129372 -0.138614 0
0.262559 -0.196399 0
0.440475 -0.224752 0
0.662250 -0.206471 0
0.896188 -0.175300 0
1.096960 -0.172202 0
1.262707 -0.175443 0
1.419319 -0.169350 0
1.562729 -0.159271 0
1.693111 -0.134215 0
1.800703 -0.086215 0
1.860846 -0.029376 0
1.862920 0.042273 0
1.803665 0.125445 0
1.696002 0.181972 0
1.561981 0.193465 0
1.427396 0.167416 0
1.310146 0.126586 0
1.217137 0.089436 0
1.146911 0.058783 0
1.092656 0.039548 0
1.041585 0.070959 0
0.978097 0.124769 0
0.905337 0.089504 0
0.786724 0.054210 0
0.646138 0.072136 0
0.616687 0.028976 0
0.683412 -0.059075 0
0.738082 -0.111076 0
0.714711 -0.080054 0
0.675784 0.005651 0
0.640993 0.079467 0
0.574725 0.106283 0
0.496385 0.081988 0
0.454540 0.026487 0
0.461383 -0.018937 0
0.492579 -0.034931 0
0.516580 -0.031110 0
0.514860 -0.005982 0
0.480073 0.039778 0
0.420076 0.078870 0
0.353826 0.087637 0
0.300679 0.069708 0
0.267632 0.043175 0
0.251660 0.021347 0
0.247031 0.005599 0
0.250331 -0.004544 0
0.259108 -0.011491 0
0.273321 -0.018995 0
0.294440 -0.026383 0
0.322003 -0.033983 0
0.355714 -0.042353 0
0.395480 -0.049919 0
0.440798 -0.056975 0
0.491082 -0.064113 0
0.546436 -0.071678 0
0.608889 -0.078828 0
0.679753 -0.081827 0
0.757922 -0.076044 0
0.839092 -0.062367 0
0.916646 -0.047809 0
0.982926 -0.043342 0
1.034349 -0.045093 0
1.075578 -0.041120 0
1.110117 -0.032667 0
1.136432 -0.020769 0
1.149401 -0.013388 0
1.000000 -0.006432 0
1.006520 -0.019856 0
1.020153 -0.034530 0
1.041798 -0.050454 0
1.072624 -0.066897 0
1.113470 -0.082028 0
1.163704 -0.092996 0
1.221824 -0.095261 0
1.276408 -0.087306 0
1.321255 -0.073172 0
1.355841 -0.057065 0
1.380556 -0.041700 0
1.396294 -0.029508 0
1.406831 -0.021985 0
1.416925 -0.017813 0
1.429150 -0.012607 0
1.441146 -0.001017 0
1.444194 0.018504 0
1.434118 0.043834 0
1.406614 0.071290 0
1.363285 0.096646 0
1.308118 0.117144 0
1.242866 0.133709 0
1.162208 0.156806 0
1.090363 0.153298 0
1.078367 0.107014 0
0.884824 0.254494 0
0.514189 0.432385 0
0.322211 0.377275 0
0.230604 0.327467 0
0.111164 0.295892 0
0.082299 0.163439 0
0.127197 -0.000496 0
0.185719 -0.126287 0
0.235989 -0.223580 0
0.274378 -0.311110 0
0.317102 -0.399699 0
0.420250 -0.455722 0
0.617121 -0.434719 0
0.861318 -0.366529 0
1.057536 -0.322371 0
1.189691 -0.300034 0
1.292302 -0.273804 0
1.371572 -0.237987 0
1.440342 -0.167748 0
1.494046 -0.062229 0
1.513555 0.057168 0
1.508198 0.166904 0
1.483929 0.241670 0
1.443908 0.268592 0
1.392542 0.251822 0
1.336787 0.210245 0
1.284895 0.163221 0
1.238932 0.124468 0
1.192103 0.105313 0
1.142351 0.114546 0
1.121740 0.136236 0
1.104162 0.191362 0
1.004738 0.259188 0
0.934981 0.170027 0
0.970005 -0.037284 0
0.959492 -0.121405 0
0.839304 -0.031308 0
0.716830 0.062290 0
0.626987 0.073710 0
0.531787 0.101052 0
0.427134 0.144602 0
0.362368 0.120179 0
0.340611 0.034997 0
0.342339 -0.038042 0
0.354129 -0.055200 0
0.359320 -0.022284 0
0.342888 0.036506 0
0.311725 0.094783 0
0.283315 0.126246 0
0.267255 0.119396 0
0.265567 0.086194 0
0.272918 0.049020 0
0.284155 0.020602 0
0.295342 0.001330 0
0.304236 -0.012075 0
0.314378 -0.022987 0
0.328652 -0.035329 0
0.349114 -0.048679 0
0.377343 -0.061270 0
0.410045 -0.073473 0
0.443445 -0.085081 0
0.475059 -0.095598 0
0.503067 -0.105633 0
0.528140 -0.117803 0
0.553339 -0.133313 0
0.584011 -0.149028 0
0.626551 -0.159334 0
0.686372 -0.158720 0
0.762107 -0.143829 0
0.845610 -0.117698 0
0.918559 -0.092646 0
0.974804 -0.075762 0
1.013375 -0.060849 0
1.034242 -0.039278 0
1.044118 -0.025464 0
1.000000 -0.009446 0
1.005027 -0.029430 0
1.017180 -0.051746 0
1.037458 -0.076669 0
1.068308 -0.103655 0
1.112338 -0.129976 0
1.169990 -0.151952 0
1.249371 -0.157209 0
1.317811 -0.140609 0
1.366970 -0.114386 0
1.402587 -0.086867 0
1.426119 -0.060858 0
1.435990 -0.040817 0
1.439656 -0.031088 0
1.446774 -0.029813 0
1.461869 -0.028114 0
1.481239 -0.012740 0
1.497960 0.018825 0
1.498151 0.061423 0
1.470817 0.107655 0
1.421092 0.147659 0
1.357285 0.179525 0
1.287549 0.207108 0
1.218555 0.228677 0
1.159426 0.230518 0
1.062190 0.298536 0
0.866102 0.491382 0
0.778593 0.542426 0
0.711492 0.445998 0
0.566104 0.455478 0
0.453649 0.372710 0
0.486272 0.119993 0
0.537208 -0.077954 0
0.597515 -0.174952 0
0.675693 -0.227277 0
0.729421 -0.277516 0
0.704388 -0.370628 0
0.610828 -0.506494 0
0.568404 -0.616372 0
0.672930 -0.612622 0
0.871426 -0.503821 0
1.031581 -0.404121 0
1.113135 -0.341156 0
1.155987 -0.282259 0
1.182661 -0.208695 0
1.210310 -0.102595 0
1.238752 0.028115 0
1.264982 0.155065 0
1.286022 0.246256 0
1.302706 0.284847 0
1.309754 0.274531 0
1.305778 0.234228 0
1.292044 0.187286 0
1.270552 0.151570 0
1.242641 0.136124 0
1.211644 0.141316 0
1.184205 0.162954 0
1.152195 0.206502 0
1.154673 0.223387 0
1.184607 0.106864 0
1.064150 0.004462 0
0.856949 0.071623 0
0.728936 0.131583 0
0.706076 0.132260 0
0.639333 0.190691 0
0.493660 0.279318 0
0.415014 0.275701 0
0.418135 0.168510 0
0.433146 0.046514 0
0.419780 -0.032455 0
0.387281 -0.051913 0
0.370257 -0.019870 0
0.363047 0.041613 0
0.354498 0.099351 0
0.348161 0.123340 0
0.352786 0.105385 0
0.366560 0.064045 0
0.381416 0.024587 0
0.392051 -0.001076 0
0.398072 -0.014481 0
0.402040 -0.023578 0
0.408184 -0.035906 0
0.420242 -0.053730 0
0.441798 -0.075072 0
0.475496 -0.094912 0
0.520736 -0.108454 0
0.574309 -0.114931 0
0.631098 -0.116594 0
0.683353 -0.117192 0
0.721282 -0.121948 0
0.736335 -0.134697 0
0.729248 -0.155036 0
0.711920 -0.178404 0
0.699955 -0.197922 0
0.704805 -0.207045 0
0.732503 -0.199791 0
0.781388 -0.174285 0
0.837944 -0.135934 0
0.883196 -0.092102 0
0.910363 -0.051510 0
0.918737 -0.032691 0
1.000000 -0.011449 0
1.001054 -0.037023 0
1.011082 -0.066956 0
1.027881 -0.101578 0
1.056846 -0.141773 0
1.102460 -0.183706 0
1.166910 -0.230026 0
1.298988 -0.243079 0
1.386121 -0.204902 0
1.430671 -0.157944 0
1.462315 -0.116211 0
1.483924 -0.075101 0
1.479330 -0.043042 0
1.464891 -0.032766 0
1.460470 -0.040023 0
1.472619 -0.047070 0
1.496414 -0.037106 0
1.535014 0.001593 0
1.561204 0.070979 0
1.548557 0.148350 0
1.500358 0.210178 0
1.430239 0.250688 0
1.344635 0.272440 0
1.256712 0.284930 0
1.172557 0.309663 0
1.073616 0.400337 0
1.010675 0.538090 0
1.022129 0.586994 0
0.958790 0.589763 0
0.870709 0.585309 0
0.859340 0.375722 0
0.738569 0.079877 0
0.589806 -0.111742 0
0.555269 -0.264774 0
0.622691 -0.355488 0
0.758273 -0.339809 0
0.893541 -0.281110 0
0.921587 -0.319743 0
0.835734 -0.496826 0
0.737490 -0.669555 0
0.758471 -0.681026 0
0.876034 -0.541748 0
0.977262 -0.398215 0
1.030677 -0.307518 0
1.043031 -0.222077 0
1.036115 -0.118326 0
1.034432 0.002491 0
1.052046 0.119628 0
1.088938 0.203941 0
1.135066 0.244854 0
1.180287 0.248744 0
1.212861 0.227949 0
1.229853 0.198442 0
1.234751 0.173866 0
1.231873 0.164216 0
1.222687 0.172978 0
1.204248 0.195680 0
1.174384 0.220889 0
1.148626 0.226772 0
1.089109 0.260547 0
0.887312 0.290371 0
0.694226 0.213806 0
0.605901 0.119562 0
0.557388 0.151890 0
0.491733 0.286123 0
0.460624 0.325369 0
0.501466 0.220126 0
0.535614 0.102045 0
0.532137 0.033350 0
0.510614 0.007822 0
0.492646 -0.005678 0
0.483512 0.001949 0
0.480116 0.052264 0
0.479233 0.109668 0
0.483713 0.127958 0
0.491934 0.100997 0
0.491522 0.057564 0
0.474705 0.023529 0
0.447384 0.003947 0
0.420429 -0.008657 0
0.401568 -0.022185 0
0.392109 -0.041188 0
0.392182 -0.068942 0
0.405196 -0.103931 0
0.431233 -0.140207 0
0.469779 -0.172284 0
0.522481 -0.195440 0
0.591306 -0.204641 0
0.673856 -0.195815 0
0.762137 -0.170782 0
0.840080 -0.141278 0
0.889384 -0.124611 0
0.899904 -0.130038 0
0.876741 -0.151602 0
0.836551 -0.176375 0
0.796364 -0.194278 0
0.772077 -0.198085 0
0.770440 -0.177568 0
0.796961 -0.133265 0
0.830018 -0.074817 0
0.837875 -0.041794 0
1.000000 -0.010490 0
1.000497 -0.040499 0
1.004099 -0.078568 0
1.009952 -0.122428 0
1.035117 -0.178229 0
1.074793 -0.240036 0
1.145051 -0.348475 0
1.386437 -0.376417 0
1.460003 -0.272290 0
1.457689 -0.190577 0
1.464704 -0.140116 0
1.489080 -0.077870 0
1.453497 -0.021782 0
1.400930 -0.012225 0
1.369016 -0.037539 0
1.365950 -0.064057 0
1.377022 -0.075133 0
1.419643 -0.045963 0
1.497671 0.047881 0
1.523338 0.168502 0
1.509137 0.265978 0
1.477655 0.335249 0
1.420520 0.380635 0
1.339499 0.400754 0
1.240389 0.413614 0
1.144071 0.460418 0
1.097128 0.542869 0
1.097843 0.594311 0
1.096974 0.597418 0
1.138032 0.554927 0
1.144345 0.504848 0
0.949188 0.389524 0
0.727680 0.105343 0
0.580544 -0.207840 0
0.453224 -0.430285 0
0.409731 -0.548370 0
0.545194 -0.533946 0
0.758036 -0.448690 0
0.871211 -0.432280 0
0.848758 -0.535364 0
0.793874 -0.642370 0
0.802335 -0.622916 0
0.865551 -0.495804 0
0.912427 -0.348034 0
0.926328 -0.214138 0
0.926472 -0.094001 0
0.931857 0.012179 0
0.947697 0.100553 0
0.975164 0.163230 0
1.010078 0.193492 0
1.055221 0.196731 0
1.107365 0.184656 0
1.153522 0.165391 0
1.189860 0.149545 0
1.214407 0.148183 0
1.226420 0.168937 0
1.223085 0.211252 0
1.199679 0.262119 0
1.153068 0.308658 0
1.070693 0.368174 0
1.003156 0.399340 0
0.927037 0.353031 0
0.812206 0.268419 0
0.692822 0.246426 0
0.619373 0.287452 0
0.630672 0.269583 0
0.649539 0.200709 0
0.640756 0.137837 0
0.623964 0.071513 0
0.622551 0.007035 0
0.637077 -0.024812 0
0.641998 -0.007341 0
0.641859 0.045892 0
0.651121 0.095755 0
0.668719 0.110639 0
0.676537 0.097576 0
0.656937 0.081275 0
0.618503 0.068726 0
0.577952 0.053201 0
0.546016 0.031336 0
0.524126 0.004743 0
0.511485 -0.026519 0
0.507678 -0.066816 0
0.511465 -0.114121 0
0.520459 -0.159492 0
0.532173 -0.199701 0
0.543942 -0.236457 0
0.560489 -0.267967 0
0.586960 -0.288020 0
0.635870 -0.288170 0
0.711178 -0.261943 0
0.799222 -0.214858 0
0.878483 -0.165758 0
0.927158 -0.134566 0
0.935317 -0.126665 0
0.912000 -0.135316 0
0.872280 -0.148359 0
0.832818 -0.160815 0
0.800674 -0.151678 0
0.789072 -0.092422 0
0.789354 -0.048452 0
1.000000 -0.011936 0
1.000526 -0.041109 0
0.999013 -0.076405 0
0.991129 -0.132591 0
1.005689 -0.206609 0
1.013050 -0.293634 0
1.102042 -0.541666 0
1.419079 -0.558027 0
1.332365 -0.276151 0
1.223694 -0.162642 0
1.139232 -0.147599 0
1.165590 -0.063891 0
1.253002 0.045110 0
1.038337 0.051717 0
0.924800 -0.005041 0
0.841192 -0.055074 0
0.829815 -0.090797 0
0.754503 -0.119055 0
0.999853 -0.032714 0
1.157120 0.136886 0
1.242030 0.255862 0
1.303948 0.339306 0
1.327748 0.410596 0
1.339190 0.465061 0
1.318889 0.505092 0
1.273802 0.543599 0
1.235666 0.584317 0
1.234250 0.587147 0
1.268739 0.549573 0
1.304320 0.537937 0
1.246268 0.564565 0
1.125181 0.496540 0
0.982488 0.256899 0
0.858595 0.009679 0
0.654485 -0.184678 0
0.423532 -0.431782 0
0.331555 -0.629419 0
0.450854 -0.645763 0
0.626728 -0.587552 0
0.730309 -0.592223 0
0.760592 -0.634607 0
0.782999 -0.613430 0
0.812922 -0.508312 0
0.839121 -0.368300 0
0.852295 -0.236127 0
0.842872 -0.123861 0
0.825200 -0.018740 0
0.829373 0.076317 0
0.860081 0.141555 0
0.918137 0.164791 0
0.993661 0.151451 0
1.069849 0.129644 0
1.141613 0.115942 0
1.205275 0.112976 0
1.250476 0.127652 0
1.272772 0.164295 0
1.273129 0.222415 0
1.255046 0.290902 0
1.216409 0.355754 0
1.161368 0.410454 0
1.125189 0.434024 0
1.092086 0.404752 0
1.056632 0.353773 0
0.989157 0.344720 0
0.903801 0.348271 0
0.860246 0.295201 0
0.851396 0.210041 0
0.850142 0.127618 0
0.857960 0.051553 0
0.856324 -0.005292 0
0.847186 -0.025125 0
0.834963 -0.002833 0
0.834605 0.043140 0
0.855246 0.082808 0
0.885318 0.102542 0
0.899015 0.112780 0
0.894462 0.115600 0
0.882885 0.102515 0
0.872353 0.076435 0
0.864124 0.045170 0
0.855972 0.012347 0
0.846320 -0.024739 0
0.835965 -0.068921 0
0.825916 -0.116710 0
0.821994 -0.160913 0
0.826238 -0.195766 0
0.835357 -0.223754 0
0.839060 -0.247656 0
0.832392 -0.271194 0
0.810927 -0.294998 0
0.781699 -0.304627 0
0.768809 -0.291913 0
0.790679 -0.257971 0
0.840943 -0.208434 0
0.893178 -0.161215 0
0.926051 -0.131239 0
0.929355 -0.118900 0
0.908274 -0.105960 0
0.857046 -0.089517 0
0.820991 -0.063493 0
0.815395 -0.043212 0
1.000000 -0.011005 0
0.998698 -0.039499 0
0.993795 -0.069165 0
0.973779 -0.129099 0
0.975353 -0.200146 0
0.913767 -0.336384 0
1.003984 -0.754499 0
0.698213 -0.529833 0
-0.000144 0.000000 0
-0.000284 0.000000 0
0.421170 -0.084568 0
0.347338 -0.191637 0
0.391830 0.105474 0
0.393627 0.315979 0
0.387740 0.159609 0
0.180547 0.030930 0
-0.068325 0.011558 0
-0.153942 -0.215998 0
0.017382 -0.354734 0
0.349717 -0.073674 0
0.560966 0.119152 0
0.860316 0.249532 0
1.057237 0.345394 0
1.153872 0.409614 0
1.212863 0.479002 0
1.253921 0.543641 0
1.281381 0.582420 0
1.319595 0.561237 0
1.350373 0.527347 0
1.330711 0.577396 0
1.244348 0.683985 0
1.133489 0.653303 0
0.999258 0.371927 0
0.835839 0.120159 0
0.721417 0.004775 0
0.618684 -0.225443 0
0.476183 -0.561270 0
0.439846 -0.743867 0
0.548309 -0.711739 0
0.650638 -0.669232 0
0.680083 -0.695065 0
0.712105 -0.675251 0
0.768332 -0.551932 0
0.788404 -0.387412 0
0.756094 -0.217894 0
0.695427 -0.066912 0
0.665918 0.025672 0
0.707359 0.065667 0
0.783673 0.074461 0
0.859508 0.059907 0
0.930074 0.045014 0
0.999437 0.036699 0
1.074999 0.029960 0
1.139220 0.040676 0
1.186076 0.080682 0
1.209586 0.146280 0
1.209264 0.228974 0
1.189734 0.318835 0
1.162835 0.402332 0
1.137025 0.459390 0
1.137748 0.468619 0
1.155399 0.421585 0
1.138928 0.371346 0
1.052901 0.399254 0
0.988586 0.416361 0
0.989963 0.321986 0
0.998572 0.210811 0
1.004510 0.131271 0
1.002712 0.065330 0
0.990743 0.017807 0
0.974744 -0.003452 0
0.966005 0.005240 0
0.976311 0.025608 0
1.006327 0.045041 0
1.044432 0.066870 0
1.079504 0.088432 0
1.113667 0.097405 0
1.143531 0.090836 0
1.164709 0.071963 0
1.174751 0.047718 0
1.174065 0.022549 0
1.164099 -0.006511 0
1.146371 -0.046411 0
1.121830 -0.100148 0
1.093885 -0.159812 0
1.068310 -0.213063 0
1.053696 -0.249277 0
1.050744 -0.265000 0
1.057705 -0.259886 0
1.061275 -0.237474 0
1.051005 -0.219822 0
1.026416 -0.223835 0
0.988178 -0.237890 0
0.945357 -0.237063 0
0.916459 -0.211771 0
0.911995 -0.171489 0
0.922255 -0.130580 0
0.929665 -0.088503 0
0.933220 -0.064391 0
0.937106 -0.050769 0
0.934891 -0.038235 0
1.000000 -0.010622 0
1.001057 -0.034891 0
0.978588 -0.051482 0
0.972414 -0.114144 0
0.910751 -0.146591 0
0.872389 -0.322260 0
0.695503 -0.403008 0
0.000000 0.002309 0
-0.586513 0.142718 0
-0.499250 0.000000 0
0.000000 0.000000 0
-0.086040 -0.036021 0
-0.180036 -0.001177 0
-0.050552 0.055809 0
0.057201 0.208042 0
-0.279370 0.400993 0
-0.682105 0.243694 0
-0.726253 -0.204759 0
-0.719584 -0.536371 0
-0.438939 -0.406697 0
-0.198284 -0.254735 0
0.307789 -0.156964 0
0.691541 0.117042 0
0.935308 0.309436 0
1.074102 0.405043 0
1.159057 0.475081 0
1.247366 0.518643 0
1.325956 0.518154 0
1.344731 0.538455 0
1.284767 0.643961 0
1.188717 0.761786 0
1.124157 0.741629 0
1.061837 0.554546 0
0.933761 0.287517 0
0.876681 0.032474 0
0.898280 -0.186552 0
0.864182 -0.450585 0
0.676861 -0.717894 0
0.611756 -0.798349 0
0.687174 -0.724001 0
0.717797 -0.696079 0
0.688460 -0.701683 0
0.705731 -0.584616 0
0.739934 -0.356067 0
0.744555 -0.143156 0
0.770584 -0.033690 0
0.810969 -0.030676 0
0.811720 -0.041444 0
0.794892 -0.010600 0
0.796048 0.018385 0
0.821654 0.011517 0
0.867666 -0.015287 0
0.914883 -0.023847 0
0.944999 0.001894 0
0.957659 0.057281 0
0.955902 0.141102 0
0.945955 0.242263 0
0.937983 0.337327 0
0.947468 0.408460 0
0.976236 0.435538 0
1.012286 0.415646 0
1.021089 0.403569 0
0.971437 0.456268 0
0.910472 0.495059 0
0.936713 0.411206 0
0.995530 0.285213 0
1.023771 0.195492 0
1.042383 0.123476 0
1.045863 0.065319 0
1.045926 0.022675 0
1.042803 -0.000388 0
1.048336 -0.004400 0
1.066928 0.002817 0
1.096110 0.014687 0
1.131607 0.029365 0
1.176605 0.043544 0
1.226420 0.051573 0
1.274148 0.051474 0
1.312554 0.045217 0
1.336597 0.035816 0
1.344801 0.023000 0
1.337812 0.002956 0
1.315312 -0.026651 0
1.277177 -0.064223 0
1.226668 -0.107392 0
1.174453 -0.155574 0
1.130965 -0.206185 0
1.105102 -0.251663 0
1.097960 -0.281723 0
1.111965 -0.288296 0
1.144330 -0.269767 0
1.176952 -0.229083 0
1.188809 -0.176910 0
1.171111 -0.136713 0
1.130405 -0.127851 0
1.078798 -0.137032 0
1.030901 -0.136568 0
0.997413 -0.116923 0
0.991339 -0.096955 0
0.989831 -0.065163 0
0.986433 -0.038973 0
1.000000 -0.012052 0
0.992452 -0.018073 0
0.969162 -0.040517 0
0.960992 -0.061257 0
0.867964 -0.100115 0
0.845498 -0.121131 0
0.504320 0.043109 0
0.382147 0.090886 0
0.000000 0.000000 0
0.000000 0.000000 0
0.000000 0.000000 0
0.000000 0.000000 0
-0.022949 0.083059 0
0.005315 0.078744 0
-0.362752 0.388429 0
-0.670773 0.770239 0
-0.640863 0.458444 0
-0.611381 -0.178517 0
-0.609484 -0.642046 0
-0.702816 -0.594972 0
-0.375384 -0.627575 0
-0.078786 -0.640291 0
0.321842 -0.282124 0
0.681157 0.027053 0
0.929498 0.255254 0
1.072321 0.370377 0
1.165194 0.415521 0
1.236663 0.463872 0
1.241169 0.568536 0
1.182827 0.733409 0
1.126806 0.844593 0
1.133217 0.780181 0
1.178041 0.562322 0
1.183238 0.305313 0
1.100444 0.040252 0
0.992741 -0.212948 0
1.013482 -0.339854 0
0.893598 -0.491445 0
0.698943 -0.722057 0
0.663657 -0.775277 0
0.732485 -0.696355 0
0.719480 -0.663190 0
0.678363 -0.603411 0
0.728129 -0.426241 0
0.827337 -0.248549 0
0.906601 -0.133331 0
0.921643 -0.015469 0
0.870360 0.081739 0
0.814054 0.090127 0
0.789291 0.033139 0
0.783117 -0.026609 0
0.778950 -0.056535 0
0.767657 -0.047378 0
0.752170 -0.002105 0
0.728508 0.069773 0
0.705498 0.157979 0
0.692596 0.246889 0
0.699973 0.317318 0
0.725300 0.364074 0
0.757586 0.394569 0
0.768132 0.423762 0
0.749095 0.462431 0