# vtk DataFile Version 2.0
generated by CFD-lab course output (written by Tobias Neckel) 
ASCII

DATASET STRUCTURED_GRID
DIMENSIONS  101 21 1 
POINTS 2121 float

0.000000 0.000000 0
0.100000 0.000000 0
0.200000 0.000000 0
0.300000 0.000000 0
0.400000 0.000000 0
0.500000 0.000000 0
0.600000 0.000000 0
0.700000 0.000000 0
0.800000 0.000000 0
0.900000 0.000000 0
1.000000 0.000000 0
1.100000 0.000000 0
1.200000 0.000000 0
1.300000 0.000000 0
1.400000 0.000000 0
1.500000 0.000000 0
1.600000 0.000000 0
1.700000 0.000000 0
1.800000 0.000000 0
1.900000 0.000000 0
2.000000 0.000000 0
2.100000 0.000000 0
2.200000 0.000000 0
2.300000 0.000000 0
2.400000 0.000000 0
2.500000 0.000000 0
2.600000 0.000000 0
2.700000 0.000000 0
2.800000 0.000000 0
2.900000 0.000000 0
3.000000 0.000000 0
3.100000 0.000000 0
3.200000 0.000000 0
3.300000 0.000000 0
3.400000 0.000000 0
3.500000 0.000000 0
3.600000 0.000000 0
3.700000 0.000000 0
3.800000 0.000000 0
3.900000 0.000000 0
4.000000 0.000000 0
4.100000 0.000000 0
4.200000 0.000000 0
4.300000 0.000000 0
4.400000 0.000000 0
4.500000 0.000000 0
4.600000 0.000000 0
4.700000 0.000000 0
4.800000 0.000000 0
4.900000 0.000000 0
5.000000 0.000000 0
5.100000 0.000000 0
5.200000 0.000000 0
5.300000 0.000000 0
5.400000 0.000000 0
5.500000 0.000000 0
5.600000 0.000000 0
5.700000 0.000000 0
5.800000 0.000000 0
5.900000 0.000000 0
6.000000 0.000000 0
6.100000 0.000000 0
6.200000 0.000000 0
6.300000 0.000000 0
6.400000 0.000000 0
6.500000 0.000000 0
6.600000 0.000000 0
6.700000 0.000000 0
6.800000 0.000000 0
6.900000 0.000000 0
7.000000 0.000000 0
7.100000 0.000000 0
7.200000 0.000000 0
7.300000 0.000000 0
7.400000 0.000000 0
7.500000 0.000000 0
7.600000 0.000000 0
7.700000 0.000000 0
7.800000 0.000000 0
7.900000 0.000000 0
8.000000 0.000000 0
8.100000 0.000000 0
8.200000 0.000000 0
8.300000 0.000000 0
8.400000 0.000000 0
8.500000 0.000000 0
8.600000 0.000000 0
8.700000 0.000000 0
8.800000 0.000000 0
8.900000 0.000000 0
9.000000 0.000000 0
9.100000 0.000000 0
9.200000 0.000000 0
9.300000 0.000000 0
9.400000 0.000000 0
9.500000 0.000000 0
9.600000 0.000000 0
9.700000 0.000000 0
9.800000 0.000000 0
9.900000 0.000000 0
10.000000 0.000000 0
0.000000 0.100000 0
0.100000 0.100000 0
0.200000 0.100000 0
0.300000 0.100000 0
0.400000 0.100000 0
0.500000 0.100000 0
0.600000 0.100000 0
0.700000 0.100000 0
0.800000 0.100000 0
0.900000 0.100000 0
1.000000 0.100000 0
1.100000 0.100000 0
1.200000 0.100000 0
1.300000 0.100000 0
1.400000 0.100000 0
1.500000 0.100000 0
1.600000 0.100000 0
1.700000 0.100000 0
1.800000 0.100000 0
1.900000 0.100000 0
2.000000 0.100000 0
2.100000 0.100000 0
2.200000 0.100000 0
2.300000 0.100000 0
2.400000 0.100000 0
2.500000 0.100000 0
2.600000 0.100000 0
2.700000 0.100000 0
2.800000 0.100000 0
2.900000 0.100000 0
3.000000 0.100000 0
3.100000 0.100000 0
3.200000 0.100000 0
3.300000 0.100000 0
3.400000 0.100000 0
3.500000 0.100000 0
3.600000 0.100000 0
3.700000 0.100000 0
3.800000 0.100000 0
3.900000 0.100000 0
4.000000 0.100000 0
4.100000 0.100000 0
4.200000 0.100000 0
4.300000 0.100000 0
4.400000 0.100000 0
4.500000 0.100000 0
4.600000 0.100000 0
4.700000 0.100000 0
4.800000 0.100000 0
4.900000 0.100000 0
5.000000 0.100000 0
5.100000 0.100000 0
5.200000 0.100000 0
5.300000 0.100000 0
5.400000 0.100000 0
5.500000 0.100000 0
5.600000 0.100000 0
5.700000 0.100000 0
5.800000 0.100000 0
5.900000 0.100000 0
6.000000 0.100000 0
6.100000 0.100000 0
6.200000 0.100000 0
6.300000 0.100000 0
6.400000 0.100000 0
6.500000 0.100000 0
6.600000 0.100000 0
6.700000 0.100000 0
6.800000 0.100000 0
6.900000 0.100000 0
7.000000 0.100000 0
7.100000 0.100000 0
7.200000 0.100000 0
7.300000 0.100000 0
7.400000 0.100000 0
7.500000 0.100000 0
7.600000 0.100000 0
7.700000 0.100000 0
7.800000 0.100000 0
7.900000 0.100000 0
8.000000 0.100000 0
8.100000 0.100000 0
8.200000 0.100000 0
8.300000 0.100000 0
8.400000 0.100000 0
8.500000 0.100000 0
8.600000 0.100000 0
8.700000 0.100000 0
8.800000 0.100000 0
8.900000 0.100000 0
9.000000 0.100000 0
9.100000 0.100000 0
9.200000 0.100000 0
9.300000 0.100000 0
9.400000 0.100000 0
9.500000 0.100000 0
9.600000 0.100000 0
9.700000 0.100000 0
9.800000 0.100000 0
9.900000 0.100000 0
10.000000 0.100000 0
0.000000 0.200000 0
0.100000 0.200000 0
0.200000 0.200000 0
0.300000 0.200000 0
0.400000 0.200000 0
0.500000 0.200000 0
0.600000 0.200000 0
0.700000 0.200000 0
0.800000 0.200000 0
0.900000 0.200000 0
1.000000 0.200000 0
1.100000 0.200000 0
1.200000 0.200000 0
1.300000 0.200000 0
1.400000 0.200000 0
1.500000 0.200000 0
1.600000 0.200000 0
1.700000 0.200000 0
1.800000 0.200000 0
1.900000 0.200000 0
2.000000 0.200000 0
2.100000 0.200000 0
2.200000 0.200000 0
2.300000 0.200000 0
2.400000 0.200000 0
2.500000 0.200000 0
2.600000 0.200000 0
2.700000 0.200000 0
2.800000 0.200000 0
2.900000 0.200000 0
3.000000 0.200000 0
3.100000 0.200000 0
3.200000 0.200000 0
3.300000 0.200000 0
3.400000 0.200000 0
3.500000 0.200000 0
3.600000 0.200000 0
3.700000 0.200000 0
3.800000 0.200000 0
3.900000 0.200000 0
4.000000 0.200000 0
4.100000 0.200000 0
4.200000 0.200000 0
4.300000 0.200000 0
4.400000 0.200000 0
4.500000 0.200000 0
4.600000 0.200000 0
4.700000 0.200000 0
4.800000 0.200000 0
4.900000 0.200000 0
5.000000 0.200000 0
5.100000 0.200000 0
5.200000 0.200000 0
5.300000 0.200000 0
5.400000 0.200000 0
5.500000 0.200000 0
5.600000 0.200000 0
5.700000 0.200000 0
5.800000 0.200000 0
5.900000 0.200000 0
6.000000 0.200000 0
6.100000 0.200000 0
6.200000 0.200000 0
6.300000 0.200000 0
6.400000 0.200000 0
6.500000 0.200000 0
6.600000 0.200000 0
6.700000 0.200000 0
6.800000 0.200000 0
6.900000 0.200000 0
7.000000 0.200000 0
7.100000 0.200000 0
7.200000 0.200000 0
7.300000 0.200000 0
7.400000 0.200000 0
7.500000 0.200000 0
7.600000 0.200000 0
7.700000 0.200000 0
7.800000 0.200000 0
7.900000 0.200000 0
8.000000 0.200000 0
8.100000 0.200000 0
8.200000 0.200000 0
8.300000 0.200000 0
8.400000 0.200000 0
8.500000 0.200000 0
8.600000 0.200000 0
8.700000 0.200000 0
8.800000 0.200000 0
8.900000 0.200000 0
9.000000 0.200000 0
9.100000 0.200000 0
9.200000 0.200000 0
9.300000 0.200000 0
9.400000 0.200000 0
9.500000 0.200000 0
9.600000 0.200000 0
9.700000 0.200000 0
9.800000 0.200000 0
9.900000 0.200000 0
10.000000 0.200000 0
0.000000 0.300000 0
0.100000 0.300000 0
0.200000 0.300000 0
0.300000 0.300000 0
0.400000 0.300000 0
0.500000 0.300000 0
0.600000 0.300000 0
0.700000 0.300000 0
0.800000 0.300000 0
0.900000 0.300000 0
1.000000 0.300000 0
1.100000 0.300000 0
1.200000 0.300000 0
1.300000 0.300000 0
1.400000 0.300000 0
1.500000 0.300000 0
1.600000 0.300000 0
1.700000 0.300000 0
1.800000 0.300000 0
1.900000 0.300000 0
2.000000 0.300000 0
2.100000 0.300000 0
2.200000 0.300000 0
2.300000 0.300000 0
2.400000 0.300000 0
2.500000 0.300000 0
2.600000 0.300000 0
2.700000 0.300000 0
2.800000 0.300000 0
2.900000 0.300000 0
3.000000 0.300000 0
3.100000 0.300000 0
3.200000 0.300000 0
3.300000 0.300000 0
3.400000 0.300000 0
3.500000 0.300000 0
3.600000 0.300000 0
3.700000 0.300000 0
3.800000 0.300000 0
3.900000 0.300000 0
4.000000 0.300000 0
4.100000 0.300000 0
4.200000 0.300000 0
4.300000 0.300000 0
4.400000 0.300000 0
4.500000 0.300000 0
4.600000 0.300000 0
4.700000 0.300000 0
4.800000 0.300000 0
4.900000 0.300000 0
5.000000 0.300000 0
5.100000 0.300000 0
5.200000 0.300000 0
5.300000 0.300000 0
5.400000 0.300000 0
5.500000 0.300000 0
5.600000 0.300000 0
5.700000 0.300000 0
5.800000 0.300000 0
5.900000 0.300000 0
6.000000 0.300000 0
6.100000 0.300000 0
6.200000 0.300000 0
6.300000 0.300000 0
6.400000 0.300000 0
6.500000 0.300000 0
6.600000 0.300000 0
6.700000 0.300000 0
6.800000 0.300000 0
6.900000 0.300000 0
7.000000 0.300000 0
7.100000 0.300000 0
7.200000 0.300000 0
7.300000 0.300000 0
7.400000 0.300000 0
7.500000 0.300000 0
7.600000 0.300000 0
7.700000 0.300000 0
7.800000 0.300000 0
7.900000 0.300000 0
8.000000 0.300000 0
8.100000 0.300000 0
8.200000 0.300000 0
8.300000 0.300000 0
8.400000 0.300000 0
8.500000 0.300000 0
8.600000 0.300000 0
8.700000 0.300000 0
8.800000 0.300000 0
8.900000 0.300000 0
9.000000 0.300000 0
9.100000 0.300000 0
9.200000 0.300000 0
9.300000 0.300000 0
9.400000 0.300000 0
9.500000 0.300000 0
9.600000 0.300000 0
9.700000 0.300000 0
9.800000 0.300000 0
9.900000 0.300000 0
10.000000 0.300000 0
0.000000 0.400000 0
0.100000 0.400000 0
0.200000 0.400000 0
0.300000 0.400000 0
0.400000 0.400000 0
0.500000 0.400000 0
0.600000 0.400000 0
0.700000 0.400000 0
0.800000 0.400000 0
0.900000 0.400000 0
1.000000 0.400000 0
1.100000 0.400000 0
1.200000 0.400000 0
1.300000 0.400000 0
1.400000 0.400000 0
1.500000 0.400000 0
1.600000 0.400000 0
1.700000 0.400000 0
1.800000 0.400000 0
1.900000 0.400000 0
2.000000 0.400000 0
2.100000 0.400000 0
2.200000 0.400000 0
2.300000 0.400000 0
2.400000 0.400000 0
2.500000 0.400000 0
2.600000 0.400000 0
2.700000 0.400000 0
2.800000 0.400000 0
2.900000 0.400000 0
3.000000 0.400000 0
3.100000 0.400000 0
3.200000 0.400000 0
3.300000 0.400000 0
3.400000 0.400000 0
3.500000 0.400000 0
3.600000 0.400000 0
3.700000 0.400000 0
3.800000 0.400000 0
3.900000 0.400000 0
4.000000 0.400000 0
4.100000 0.400000 0
4.200000 0.400000 0
4.300000 0.400000 0
4.400000 0.400000 0
4.500000 0.400000 0
4.600000 0.400000 0
4.700000 0.400000 0
4.800000 0.400000 0
4.900000 0.400000 0
5.000000 0.400000 0
5.100000 0.400000 0
5.200000 0.400000 0
5.300000 0.400000 0
5.400000 0.400000 0
5.500000 0.400000 0
5.600000 0.400000 0
5.700000 0.400000 0
5.800000 0.400000 0
5.900000 0.400000 0
6.000000 0.400000 0
6.100000 0.400000 0
6.200000 0.400000 0
6.300000 0.400000 0
6.400000 0.400000 0
6.500000 0.400000 0
6.600000 0.400000 0
6.700000 0.400000 0
6.800000 0.400000 0
6.900000 0.400000 0
7.000000 0.400000 0
7.100000 0.400000 0
7.200000 0.400000 0
7.300000 0.400000 0
7.400000 0.400000 0
7.500000 0.400000 0
7.600000 0.400000 0
7.700000 0.400000 0
7.800000 0.400000 0
7.900000 0.400000 0
8.000000 0.400000 0
8.100000 0.400000 0
8.200000 0.400000 0
8.300000 0.400000 0
8.400000 0.400000 0
8.500000 0.400000 0
8.600000 0.400000 0
[...]
POINT_DATA 2121 

VECTORS velocity float
0.500000 0.000000 0
-0.000057 0.000000 0
-0.000157 0.000000 0
-0.000304 0.000000 0
-0.000493 0.000000 0
-0.000700 0.000000 0
-0.000884 0.000000 0
-0.001002 0.000000 0
-0.001015 0.000000 0
-0.000896 0.000000 0
-0.000547 0.000000 0
0.000040 0.000000 0
0.000839 0.000000 0
0.001733 0.000000 0
0.002602 0.000000 0
0.003332 0.000000 0
0.003850 0.000000 0
0.004119 0.000000 0
0.004006 0.000000 0
0.004415 0.000000 0
0.005200 0.000000 0
0.004325 0.000000 0
0.004912 0.000000 0
-0.007953 0.000000 0
-0.015425 0.000000 0
-0.012616 0.000000 0
-0.011503 0.000000 0
-0.007979 0.000000 0
-0.004578 0.000000 0
0.000099 0.000000 0
0.003936 0.000000 0
0.006837 0.000000 0
0.007491 0.000000 0
0.007335 0.000000 0
0.020994 0.000000 0
0.034168 0.000000 0
0.015399 0.000000 0
-0.000274 0.000000 0
-0.003793 0.000000 0
-0.008113 0.000000 0
-0.001347 0.000000 0
0.008670 0.000000 0
0.007893 0.000000 0
0.004059 0.000000 0
0.001110 0.000000 0
-0.001544 0.000000 0
-0.004787 0.000000 0
-0.009001 0.000000 0
-0.012377 0.000000 0
-0.012602 0.000000 0
-0.010197 0.000000 0
-0.007232 0.000000 0
-0.005526 0.000000 0
-0.005416 0.000000 0
-0.005986 0.000000 0
-0.006710 0.000000 0
-0.007679 0.000000 0
-0.010762 0.000000 0
-0.012800 0.000000 0
-0.014851 0.000000 0
-0.016500 0.000000 0
-0.017273 0.000000 0
-0.017054 0.000000 0
-0.015713 0.000000 0
-0.013119 0.000000 0
-0.009685 0.000000 0
-0.005345 0.000000 0
-0.000133 0.000000 0
0.005550 0.000000 0
0.011185 0.000000 0
0.015576 0.000000 0
0.017787 0.000000 0
0.025181 0.000000 0
0.049346 0.000000 0
0.047644 0.000000 0
0.019692 0.000000 0
-0.001499 0.000000 0
-0.007335 0.000000 0
-0.008449 0.000000 0
-0.011920 0.000000 0
-0.008222 0.000000 0
-0.002745 0.000000 0
0.000068 0.000000 0
0.000015 0.000000 0
0.000464 0.000000 0
0.004604 0.000000 0
0.010169 0.000000 0
0.010251 0.000000 0
0.006589 0.000000 0
0.002922 0.000000 0
0.000357 0.000000 0
-0.001319 0.000000 0
-0.002510 0.000000 0
-0.003483 0.000000 0
-0.004366 0.000000 0
-0.005189 0.000000 0
-0.005961 0.000000 0
-0.006489 0.000000 0
-0.006787 0.000000 0
-0.006814 0.000000 0
-0.006904 0.000000 0
1.000000 -0.003422 0
1.007415 -0.010933 0
1.023199 -0.019582 0
1.048296 -0.029008 0
1.083595 -0.038584 0
1.129108 -0.047051 0
1.183070 -0.052625 0
1.241797 -0.053143 0
1.297451 -0.047829 0
1.344055 -0.038023 0
1.378365 -0.025242 0
1.398117 -0.010602 0
1.402186 0.005013 0
1.389897 0.020754 0
1.361773 0.035748 0
1.318826 0.048996 0
1.263501 0.059471 0
1.199175 0.065629 0
1.129662 0.065813 0
1.059223 0.078277 0
0.990960 0.091290 0
0.914727 0.094850 0
0.776657 0.094974 0
0.626001 0.005733 0
0.674824 -0.126517 0
0.830779 -0.161613 0
1.025505 -0.146215 0
1.184797 -0.123596 0
1.302367 -0.078883 0
1.373783 -0.026674 0
1.389462 0.023635 0
1.356890 0.062456 0
1.285518 0.080232 0
1.190253 0.112506 0
1.057778 0.255800 0
0.862533 0.341313 0
0.684557 0.197071 0
0.601887 0.018326 0
0.675874 -0.048545 0
0.707717 -0.062180 0
0.574675 -0.011295 0
0.399568 0.069231 0
0.287223 0.068651 0
0.245301 0.028572 0
0.233523 -0.002196 0
0.241017 -0.027598 0
0.267958 -0.060445 0
0.317375 -0.103088 0
0.407488 -0.135788 0
0.535579 -0.133072 0
0.662614 -0.099656 0
0.760360 -0.059977 0
0.824208 -0.034211 0
0.864679 -0.026891 0
0.897365 -0.029180 0
0.932610 -0.035636 0
0.974769 -0.046832 0
1.025211 -0.062656 0
1.088884 -0.078701 0
1.167192 -0.093176 0
1.262012 -0.104626 0
1.364010 -0.109589 0
1.467807 -0.107661 0
1.567877 -0.098280 0
1.656174 -0.081461 0
1.725033 -0.058670 0
1.772204 -0.030097 0
1.791893 0.004842 0
1.776923 0.044781 0
1.722414 0.085421 0
1.630865 0.116228 0
1.506154 0.139115 0
1.349322 0.215069 0
1.134492 0.383823 0
0.873243 0.416476 0
0.681803 0.212824 0
0.601848 0.005386 0
0.564192 -0.077922 0
0.516036 -0.097011 0
0.539028 -0.117483 0
0.641672 -0.100361 0
0.712856 -0.047509 0
0.750900 -0.009297 0
0.757048 0.001865 0
0.717468 0.015569 0
0.624576 0.066480 0
0.485144 0.130042 0
0.347500 0.144224 0
0.250607 0.104419 0
0.198900 0.054825 0
0.180133 0.018795 0
0.180772 -0.002783 0
0.192259 -0.015434 0
0.210411 -0.023632 0
0.233784 -0.029693 0
0.262494 -0.034374 0
0.295900 -0.038252 0
0.334504 -0.037911 0
0.370242 -0.032707 0
0.400843 -0.021695 0
0.414467 -0.013718 0
1.000000 -0.007413 0
1.007527 -0.023196 0
1.023672 -0.040879 0
1.049485 -0.060394 0
1.086995 -0.080809 0
1.137316 -0.099473 0
1.199076 -0.112689 0
1.270773 -0.114381 0
1.337125 -0.102257 0
1.390103 -0.080914 0
1.428562 -0.054063 0
1.450487 -0.023823 0
1.455896 0.008218 0
1.443132 0.040411 0
1.413576 0.071068 0
1.367205 0.098269 0
1.307134 0.119648 0
1.237087 0.133836 0
1.160571 0.139948 0
1.080382 0.138698 0
0.997869 0.144492 0
1.005789 0.214298 0
1.119390 0.288722 0
0.901299 0.101829 0
0.519653 -0.204783 0
0.489312 -0.350685 0
0.687312 -0.354022 0
0.937608 -0.276867 0
1.145414 -0.188991 0
1.259714 -0.087099 0
1.319394 0.016889 0
1.342181 0.103940 0
1.315015 0.166633 0
1.239408 0.227736 0
1.149062 0.327716 0
1.139341 0.373216 0
1.123147 0.260642 0
1.040032 0.008679 0
0.945535 -0.105835 0
0.884365 0.101195 0
0.676560 0.308144 0
0.454204 0.287447 0
0.373402 0.154261 0
0.353023 0.053694 0
0.326037 0.004278 0
0.323105 -0.034442 0
0.345341 -0.076366 0
0.343913 -0.139539 0
0.339544 -0.218212 0
0.387366 -0.255135 0
0.489441 -0.224791 0
0.602634 -0.161605 0
0.696337 -0.104331 0
0.761443 -0.073169 0
0.802659 -0.067944 0
0.834122 -0.077418 0
0.866855 -0.092615 0
0.906776 -0.114130 0
0.959616 -0.141996 0
1.031538 -0.173144 0
1.114804 -0.196834 0
1.203011 -0.205812 0
1.292197 -0.203884 0
1.377317 -0.188384 0
1.451744 -0.157173 0
1.510865 -0.116047 0
1.558006 -0.066877 0
1.587539 -0.004736 0
1.590373 0.069463 0
1.562648 0.146041 0
1.508290 0.216244 0
1.428147 0.281528 0
1.326052 0.371647 0
1.250307 0.476064 0
1.267152 0.452675 0
1.261306 0.271381 0
1.189017 0.117598 0
1.079517 0.085800 0
0.991006 0.025152 0
0.895844 -0.125647 0
0.734722 -0.173838 0
0.664528 -0.109237 0
0.678163 -0.044202 0
0.693615 0.033423 0
0.637842 0.132466 0
0.508540 0.232318 0
0.381527 0.277070 0
0.312540 0.234532 0
0.287096 0.148595 0
0.282254 0.070470 0
0.284860 0.018125 0
0.290214 -0.012129 0
0.298660 -0.029641 0
0.309867 -0.041527 0
0.323680 -0.052084 0
0.340313 -0.062116 0
0.360994 -0.072012 0
0.388828 -0.074344 0
0.422657 -0.066339 0
0.456682 -0.044225 0
0.470810 -0.027419 0
1.000000 -0.010947 0
1.006093 -0.034601 0
1.021111 -0.061539 0
1.045327 -0.092330 0
1.083992 -0.126414 0
1.140044 -0.159131 0
1.212598 -0.186081 0
1.312554 -0.191191 0
1.397896 -0.167159 0
1.455682 -0.129460 0
1.493591 -0.085626 0
1.515656 -0.037936 0
1.523391 0.012367 0
1.514168 0.063073 0
1.481663 0.111674 0
1.426856 0.155438 0
1.357658 0.189589 0
1.282205 0.212191 0
1.204831 0.222516 0
1.119896 0.240978 0
1.025696 0.165882 0
0.916006 -0.026673 0
0.778235 0.199462 0
0.447027 0.605468 0
0.128347 0.285469 0
0.050044 -0.329273 0
0.139887 -0.594513 0
0.355252 -0.581699 0
0.666341 -0.400990 0
0.925371 -0.200655 0
1.084922 -0.058833 0
1.165001 0.066833 0
1.200020 0.183004 0
1.209527 0.278458 0
1.203139 0.355865 0
1.222202 0.367226 0
1.221601 0.296379 0
1.145021 0.195936 0
0.927967 0.107121 0
0.713650 0.206793 0
0.549502 0.418864 0
0.469348 0.372387 0
0.506716 0.169829 0
0.516000 0.075934 0
0.453799 0.027719 0
0.445023 -0.046906 0
0.510837 -0.081257 0
0.535335 -0.097295 0
0.479224 -0.179244 0
0.396051 -0.282973 0
0.394756 -0.314929 0
0.470019 -0.266878 0
0.568126 -0.193024 0
0.656924 -0.133218 0
0.714020 -0.101864 0
0.739709 -0.099838 0
0.751442 -0.119492 0
0.767334 -0.155424 0
0.792674 -0.203470 0
0.838758 -0.248371 0
0.921948 -0.276106 0
1.026140 -0.286989 0
1.106342 -0.281974 0
1.176502 -0.257833 0
1.232279 -0.215015 0
1.263675 -0.164939 0
1.296293 -0.106778 0
1.328344 -0.027531 0
1.349238 0.069666 0
1.350444 0.167498 0
1.328447 0.250722 0
1.303571 0.321347 0
1.288777 0.392904 0
1.317104 0.442718 0
1.391449 0.405472 0
1.419024 0.290954 0
1.362881 0.187171 0
1.282879 0.120086 0
1.227191 0.086658 0
1.105247 0.138796 0
0.885325 0.130952 0
0.676190 0.009047 0
0.556989 -0.038387 0
0.528758 0.042184 0
0.486403 0.200641 0
0.406607 0.322793 0
0.366687 0.326040 0
0.381920 0.238654 0
0.409263 0.134703 0
0.423795 0.057060 0
0.421428 0.010835 0
0.412965 -0.016584 0
0.409421 -0.035088 0
0.414757 -0.048652 0
0.426044 -0.060139 0
0.437652 -0.071688 0
0.446973 -0.086767 0
0.457146 -0.099574 0
0.477278 -0.100561 0
0.513936 -0.069848 0
0.527304 -0.042172 0
1.000000 -0.013503 0
1.002536 -0.044302 0
1.016641 -0.080110 0
1.034796 -0.123273 0
1.072881 -0.175525 0
1.132858 -0.228077 0
1.217638 -0.285197 0
1.382712 -0.299678 0
1.485999 -0.245385 0
1.537286 -0.176609 0
1.567315 -0.114037 0
1.585875 -0.053623 0
1.598356 0.009705 0
1.603099 0.082139 0
1.580666 0.158379 0
1.514658 0.222273 0
1.415652 0.264298 0
1.303961 0.286661 0
1.177748 0.302256 0
1.123690 0.317833 0
1.132478 0.348382 0
0.945236 0.461758 0
0.464573 0.757700 0
0.312313 0.751716 0
0.603866 0.192198 0
0.483304 -0.362226 0
0.049863 -0.659231 0
-0.091362 -0.803323 0
0.080330 -0.759112 0
0.418183 -0.505682 0
0.709763 -0.222742 0
0.894148 -0.011159 0
1.010270 0.122106 0
1.079255 0.224615 0
1.129307 0.315039 0
1.181748 0.354753 0
1.189590 0.337821 0
1.135794 0.302311 0
1.012305 0.325535 0
0.796506 0.479657 0
0.676652 0.552444 0
0.682969 0.330231 0
0.651012 0.107607 0
0.597278 0.106607 0
0.536498 0.075252 0
0.509138 -0.091483 0
0.541834 -0.166682 0
0.569048 -0.107930 0
0.523457 -0.078933 0
0.437092 -0.170671 0
0.385312 -0.298763 0
0.404851 -0.334980 0
0.484638 -0.291241 0
0.591147 -0.219068 0
0.683460 -0.150734 0
0.739506 -0.114845 0
0.768960 -0.120246 0
0.794456 -0.155368 0
0.810577 -0.213426 0
0.792191 -0.302425 0
0.794832 -0.384223 0
0.873504 -0.390212 0
0.975147 -0.354252 0
1.052242 -0.314328 0
1.104567 -0.244352 0
1.093986 -0.180067 0
1.058854 -0.131554 0
1.059634 -0.057687 0
1.066302 0.047357 0
1.080837 0.166826 0
1.104379 0.263111 0
1.122976 0.321192 0
1.155551 0.358107 0
1.232866 0.373387 0
1.324301 0.350751 0
1.371687 0.299943 0
1.357356 0.253738 0
1.304605 0.221487 0
1.220173 0.202781 0
1.123636 0.216215 0
1.072458 0.255215 0
0.955648 0.219097 0
0.804256 0.103228 0
0.642530 0.104007 0
0.496771 0.254615 0
0.430926 0.352032 0
0.451223 0.301755 0
0.507504 0.191954 0
0.547553 0.106720 0
0.551988 0.058304 0
0.533463 0.028954 0
0.515216 -0.000122 0
0.509080 -0.031435 0
0.517794 -0.058151 0
0.539981 -0.074979 0
0.569869 -0.083046 0
0.598396 -0.091506 0
0.611025 -0.104648 0
0.609539 -0.123130 0
0.627652 -0.094252 0
0.636402 -0.054402 0
1.000000 -0.013478 0
0.998769 -0.051237 0
1.010822 -0.093796 0
1.014626 -0.148567 0
1.051136 -0.224474 0
1.101684 -0.303886 0
1.203079 -0.435933 0
1.486185 -0.459550 0
1.568419 -0.321732 0
1.567978 -0.210777 0
1.569085 -0.134215 0
1.570838 -0.068976 0
1.585622 -0.004857 0
1.622452 0.080762 0
1.656851 0.200115 0
1.628389 0.320451 0
1.542435 0.400285 0
1.409828 0.450095 0
1.260222 0.402787 0
1.083347 0.286248 0
1.017172 0.344335 0
1.056017 0.641232 0
1.044447 0.832384 0
1.297846 0.466174 0
1.222447 0.114477 0
0.791390 0.224729 0
0.368170 -0.019848 0
0.053065 -0.612168 0
-0.107261 -0.910536 0
0.015247 -0.830089 0
0.307153 -0.534800 0
0.591190 -0.233675 0
0.796990 -0.002105 0
0.926362 0.159419 0
1.013164 0.253371 0
1.073597 0.306942 0
1.109901 0.342332 0
1.102272 0.373219 0
1.044296 0.446407 0
0.981313 0.542444 0
1.010531 0.532399 0
1.038603 0.398025 0
0.963717 0.255519 0
0.888630 0.190445 0
0.855298 0.115855 0
0.762486 -0.052245 0
0.519905 -0.141170 0
0.328129 -0.078921 0
0.276284 -0.047293 0
0.338095 -0.144833 0
0.414750 -0.282693 0
0.461332 -0.366209 0
0.509852 -0.379325 0
0.590593 -0.332045 0
0.696465 -0.250229 0
0.797528 -0.185344 0
0.879208 -0.174448 0
0.938987 -0.197047 0
0.977965 -0.201211 0
0.969882 -0.232633 0
0.880923 -0.357425 0
0.814951 -0.467310 0
0.867643 -0.460719 0
0.931703 -0.387260 0
0.964147 -0.256766 0
1.001740 -0.119231 0
0.968028 -0.072433 0
0.891127 -0.034986 0
0.872599 0.048456 0
0.832006 0.129414 0
0.788182 0.208577 0
0.849904 0.270169 0
0.993408 0.283009 0
1.121662 0.273962 0
1.235038 0.266646 0
1.313113 0.257895 0
1.344229 0.254248 0
1.339705 0.257265 0
1.305470 0.267623 0
1.251833 0.286507 0
1.203373 0.298936 0
1.164679 0.277246 0
1.047738 0.274728 0
0.811268 0.349667 0
0.631821 0.412243 0
0.605840 0.368339 0
0.662173 0.249461 0
0.716560 0.142323 0
0.732297 0.090218 0
0.709341 0.071149 0
0.678828 0.047606 0
0.667048 0.007798 0
0.671489 -0.037667 0
0.682071 -0.079554 0
0.696191 -0.112214 0
0.718750 -0.130104 0
0.751895 -0.127924 0
0.789745 -0.110717 0
0.801977 -0.117189 0
0.793455 -0.096712 0
0.797077 -0.059864 0
1.000000 -0.012266 0
1.000591 -0.055117 0
0.999202 -0.095964 0
0.994997 -0.163584 0
1.024374 -0.262580 0
1.028872 -0.380017 0
1.173300 -0.669695 0
1.506351 -0.665016 0
1.400147 -0.327177 0
1.273973 -0.177275 0
1.190875 -0.116897 0
1.197665 -0.070161 0
1.096426 -0.041909 0
1.261948 0.010910 0
1.430109 0.152441 0
1.503588 0.336689 0
1.512933 0.482859 0
1.459347 0.568874 0
1.364282 0.628737 0
1.143845 0.560883 0
0.826993 0.375711 0
0.899417 0.434482 0
1.161101 0.515870 0
1.142265 0.573715 0
0.692970 0.698653 0
0.544913 0.492049 0
0.713844 0.079093 0
0.614973 -0.327892 0
0.282415 -0.721294 0
0.033587 -0.920097 0
0.087440 -0.798687 0
0.321899 -0.500997 0
0.562426 -0.213066 0
0.759829 0.008440 0
0.904205 0.167802 0
0.988073 0.258014 0
1.038378 0.309144 0
1.073739 0.367915 0
1.094424 0.446492 0
1.131152 0.513420 0
1.193397 0.495151 0
1.237528 0.377044 0
1.251290 0.257578 0
1.209166 0.215024 0
1.116978 0.201392 0
0.905747 0.243906 0
0.584299 0.267672 0
0.340963 0.135688 0
0.302414 -0.088902 0
0.429148 -0.309141 0
0.607435 -0.422005 0
0.725304 -0.430087 0
0.765465 -0.420508 0
0.770338 -0.405687 0
0.809281 -0.357674 0
0.887742 -0.297594 0
0.970367 -0.261712 0
1.010861 -0.254131 0
1.002899 -0.244327 0
0.997666 -0.205389 0
0.970225 -0.229299 0
0.865060 -0.376938 0
0.777495 -0.471011 0
0.828021 -0.410839 0
0.925310 -0.314396 0
0.995281 -0.183955 0
0.985594 -0.020947 0
0.863263 0.037735 0
0.656714 0.106471 0
0.464402 0.251238 0
0.375621 0.245207 0
0.463282 0.115960 0
0.681851 0.086343 0
0.929710 0.131751 0
1.120176 0.159295 0
1.218081 0.190748 0
1.266435 0.227142 0
1.281471 0.260242 0
1.271359 0.290649 0
1.245087 0.318308 0
1.208566 0.342366 0
1.151267 0.374729 0
1.048061 0.456636 0
0.951623 0.519921 0
0.947753 0.460041 0
1.011563 0.321679 0
1.053997 0.191033 0
1.025017 0.121828 0
0.943707 0.113937 0
0.868442 0.111772 0
0.832775 0.071246 0
0.823793 0.007216 0
0.826281 -0.046458 0
0.833439 -0.082852 0
0.840097 -0.111659 0
0.847048 -0.138751 0
0.849337 -0.162502 0
0.870203 -0.154731 0
0.898333 -0.126840 0
0.874760 -0.089351 0
0.875659 -0.061144 0
1.000000 -0.014063 0
1.002096 -0.050431 0
0.989078 -0.088198 0
0.979957 -0.173735 0
0.973171 -0.258345 0
0.953901 -0.452809 0
1.024165 -0.913410 0
0.733519 -0.597041 0
-0.003381 0.000000 0
-0.003338 0.000000 0
0.423875 -0.056402 0
0.379256 0.025473 0
0.176719 -0.069140 0
0.446095 -0.252921 0
0.718794 -0.041525 0
1.020193 0.237627 0
1.220234 0.444526 0
1.272257 0.598746 0
1.256456 0.718289 0
1.197590 0.823536 0
1.002857 0.588763 0
0.804446 0.307123 0
0.709928 0.589536 0
0.414350 0.934304 0
0.399360 0.711829 0
0.621930 0.203855 0
0.772069 -0.089910 0
0.836375 -0.180739 0
0.717137 -0.329150 0
0.410298 -0.635114 0
0.178699 -0.823113 0
0.214715 -0.708662 0
0.400944 -0.440035 0
0.606288 -0.182361 0
0.789238 0.025125 0
0.923158 0.172767 0
0.995847 0.256665 0
1.049368 0.317172 0
1.112129 0.388992 0
1.187587 0.443470 0
1.270458 0.426020 0
1.323914 0.340129 0
1.309606 0.283878 0
1.225233 0.324754 0
1.090212 0.419272 0
0.920906 0.480431 0
0.839874 0.423610 0
0.822993 0.202960 0
0.842727 -0.135482 0
0.880405 -0.449858 0
0.970623 -0.578853 0
1.076435 -0.524243 0
1.132473 -0.424364 0
1.107577 -0.375866 0
1.049356 -0.367639 0
1.024365 -0.346435 0
1.035536 -0.297573 0
1.049192 -0.229586 0
1.042476 -0.188022 0
1.034387 -0.199965 0
1.056358 -0.224825 0
1.043856 -0.274586 0
0.956807 -0.423687 0
0.905902 -0.535082 0
0.942784 -0.424032 0
0.916935 -0.179522 0
0.793313 0.059579 0
0.618134 0.293888 0
0.397232 0.447311 0
0.333976 0.410501 0
0.407964 0.209691 0
0.408619 -0.036066 0
0.415221 -0.183424 0
0.586562 -0.164367 0
0.814611 -0.021730 0
0.991498 0.111631 0
1.096638 0.190854 0
1.132995 0.252337 0
1.135048 0.304003 0
1.126792 0.349297 0
1.122657 0.392753 0
1.119781 0.437747 0
1.114108 0.474370 0
1.156066 0.449973 0
1.204615 0.352301 0
1.210575 0.262093 0
1.169944 0.236005 0
1.094295 0.252612 0
1.017545 0.246793 0
0.975832 0.182080 0
0.966676 0.092254 0
0.963613 0.014291 0
0.958252 -0.047314 0
0.953690 -0.093370 0
0.952146 -0.125823 0
0.949779 -0.139345 0
0.944865 -0.151079 0
0.931868 -0.159713 0
0.933667 -0.121746 0
0.933353 -0.074038 0
0.938393 -0.060388 0
1.000000 -0.014355 0
1.002171 -0.044185 0
0.971461 -0.073821 0
0.987084 -0.147673 0
0.879382 -0.236519 0
0.920379 -0.431007 0
0.593990 -0.538663 0
0.000000 0.005224 0
-0.603025 0.245717 0
-0.499033 0.000000 0
0.000000 0.000000 0
-0.057450 0.175947 0
0.022464 -0.108748 0
-0.165789 -0.531165 0
-0.046514 -0.421656 0
0.323320 -0.164750 0
0.760431 0.230795 0
0.971141 0.532652 0
1.054340 0.703404 0
1.092547 0.814482 0
1.129326 0.768855 0
0.827881 0.727411 0
0.458866 0.905966 0
0.364593 0.884283 0
0.535314 0.491072 0
0.577950 0.119339 0
0.506543 -0.135352 0
0.499102 -0.272960 0
0.597680 -0.295219 0
0.623240 -0.381660 0
0.478852 -0.603105 0
0.345330 -0.723243 0
0.377209 -0.604640 0
0.527648 -0.379855 0
0.705131 -0.149069 0
0.854575 0.051405 0
0.957211 0.182933 0
1.024365 0.251632 0
1.100766 0.308272 0
1.188067 0.355089 0
1.270618 0.358823 0
1.306786 0.337893 0
1.270753 0.356256 0
1.193272 0.434416 0
1.127635 0.505717 0
1.115747 0.494241 0
1.158798 0.365582 0
1.205440 0.132831 0
1.184660 -0.146318 0
1.004286 -0.437040 0
0.893950 -0.618040 0
0.904759 -0.591942 0
1.014801 -0.451655 0
1.089253 -0.322575 0
1.087974 -0.274468 0
1.053785 -0.283779 0
1.030562 -0.286544 0
1.046648 -0.261077 0
1.103766 -0.229527 0
1.167668 -0.219278 0
1.223788 -0.238775 0
1.289611 -0.277393 0
1.303827 -0.333063 0
1.170061 -0.396822 0
0.987155 -0.325435 0
0.815810 -0.034491 0
0.648562 0.277847 0
0.540219 0.433810 0
0.549680 0.390623 0
0.621091 0.240499 0
0.654273 0.170559 0
0.530405 0.108697 0
0.349136 -0.091605 0
0.290366 -0.267643 0
0.426207 -0.245646 0
0.649972 -0.091284 0
0.808877 0.085641 0
0.897870 0.221827 0
0.943864 0.296848 0
0.969007 0.330696 0
0.985307 0.349374 0
0.995824 0.383275 0
1.015053 0.420349 0
1.046857 0.429412 0
1.061770 0.405529 0
1.049326 0.356348 0
1.027067 0.307312 0
1.022599 0.274226 0
1.049747 0.232399 0
1.082882 0.162640 0
1.097613 0.083464 0
1.095832 0.015639 0
1.084368 -0.036536 0
1.068770 -0.076746 0
1.054864 -0.107748 0
1.043674 -0.131470 0
1.042666 -0.144590 0
1.032440 -0.143533 0
1.020101 -0.128326 0
1.031635 -0.094078 0
1.037575 -0.070569 0
1.000000 -0.016226 0
0.986480 -0.021881 0
0.974896 -0.073106 0
0.945436 -0.081652 0
0.894382 -0.191634 0
0.800082 -0.167411 0
0.490765 -0.069914 0
0.378239 -0.079937 0
0.000000 0.000000 0
0.000000 0.000000 0
0.000000 0.000000 0
0.000000 0.000000 0
0.173986 0.037239 0
-0.119755 -0.183942 0
-0.360013 -0.530633 0
-0.308025 -0.569317 0
0.112860 -0.203295 0
0.584836 0.304838 0
0.804575 0.596883 0
0.938778 0.748551 0
0.983279 0.853430 0
0.839663 0.977582 0
0.666808 1.052824 0
0.707496 0.857856 0
0.730860 0.498471 0
0.648053 0.232625 0
0.508798 -0.011062 0
0.373133 -0.271877 0
0.370780 -0.453289 0
0.512601 -0.516287 0
0.638573 -0.545204 0
0.609224 -0.607021 0
0.549645 -0.622354 0
0.581184 -0.510284 0
0.692026 -0.301803 0
0.819622 -0.079314 0
0.926978 0.086873 0
1.008261 0.173616 0
1.085517 0.225290 0
1.164965 0.273616 0
1.230673 0.307299 0
1.256401 0.339992 0
1.239642 0.397390 0
1.216422 0.467870 0
1.225106 0.496794 0
1.265045 0.449265 0
1.306334 0.333914 0
1.306161 0.177095 0
1.241345 0.065668 0
1.055136 -0.159152 0
0.670160 -0.479330 0
0.400037 -0.645098 0
0.423643 -0.608863 0
0.548203 -0.449045 0
0.701341 -0.332177 0
0.839846 -0.289029 0
0.932362 -0.290441 0
0.998718 -0.302796 0
1.070381 -0.309049 0
1.141230 -0.319993 0
1.192819 -0.346773 0
1.233110 -0.354631 0