# vtk DataFile Version 2.0
generated by CFD-lab course output (written by Tobias Neckel) 
ASCII

DATASET STRUCTURED_GRID
DIMENSIONS  101 21 1 
POINTS 2121 float

0.000000 0.000000 0
0.100000 0.000000 0
0.200000 0.000000 0
0.300000 0.000000 0
0.400000 0.000000 0
0.500000 0.000000 0
0.600000 0.000000 0
0.700000 0.000000 0
0.800000 0.000000 0
0.900000 0.000000 0
1.000000 0.000000 0
1.100000 0.000000 0
1.200000 0.000000 0
1.300000 0.000000 0
1.400000 0.000000 0
1.500000 0.000000 0
1.600000 0.000000 0
1.700000 0.000000 0
1.800000 0.000000 0
1.900000 0.000000 0
2.000000 0.000000 0
2.100000 0.000000 0
2.200000 0.000000 0
2.300000 0.000000 0
2.400000 0.000000 0
2.500000 0.000000 0
2.600000 0.000000 0
2.700000 0.000000 0
2.800000 0.000000 0
2.900000 0.000000 0
3.000000 0.000000 0
3.100000 0.000000 0
3.200000 0.000000 0
3.300000 0.000000 0
3.400000 0.000000 0
3.500000 0.000000 0
3.600000 0.000000 0
3.700000 0.000000 0
3.800000 0.000000 0
3.900000 0.000000 0
4.000000 0.000000 0
4.100000 0.000000 0
4.200000 0.000000 0
4.300000 0.000000 0
4.400000 0.000000 0
4.500000 0.000000 0
4.600000 0.000000 0
4.700000 0.000000 0
4.800000 0.000000 0
4.900000 0.000000 0
5.000000 0.000000 0
5.100000 0.000000 0
5.200000 0.000000 0
5.300000 0.000000 0
5.400000 0.000000 0
5.500000 0.000000 0
5.600000 0.000000 0
5.700000 0.000000 0
5.800000 0.000000 0
5.900000 0.000000 0
6.000000 0.000000 0
6.100000 0.000000 0
6.200000 0.000000 0
6.300000 0.000000 0
6.400000 0.000000 0
6.500000 0.000000 0
6.600000 0.000000 0
6.700000 0.000000 0
6.800000 0.000000 0
6.900000 0.000000 0
7.000000 0.000000 0
7.100000 0.000000 0
7.200000 0.000000 0
7.300000 0.000000 0
7.400000 0.000000 0
7.500000 0.000000 0
7.600000 0.000000 0
7.700000 0.000000 0
7.800000 0.000000 0
7.900000 0.000000 0
8.000000 0.000000 0
8.100000 0.000000 0
8.200000 0.000000 0
8.300000 0.000000 0
8.400000 0.000000 0
8.500000 0.000000 0
8.600000 0.000000 0
8.700000 0.000000 0
8.800000 0.000000 0
8.900000 0.000000 0
9.000000 0.000000 0
9.100000 0.000000 0
9.200000 0.000000 0
9.300000 0.000000 0
9.400000 0.000000 0
9.500000 0.000000 0
9.600000 0.000000 0
9.700000 0.000000 0
9.800000 0.000000 0
9.900000 0.000000 0
10.000000 0.000000 0
0.000000 0.100000 0
0.100000 0.100000 0
0.200000 0.100000 0
0.300000 0.100000 0
0.400000 0.100000 0
0.500000 0.100000 0
0.600000 0.100000 0
0.700000 0.100000 0
0.800000 0.100000 0
0.900000 0.100000 0
1.000000 0.100000 0
1.100000 0.100000 0
1.200000 0.100000 0
1.300000 0.100000 0
1.400000 0.100000 0
1.500000 0.100000 0
1.600000 0.100000 0
1.700000 0.100000 0
1.800000 0.100000 0
1.900000 0.100000 0
2.000000 0.100000 0
2.100000 0.100000 0
2.200000 0.100000 0
2.300000 0.100000 0
2.400000 0.100000 0
2.500000 0.100000 0
2.600000 0.100000 0
2.700000 0.100000 0
2.800000 0.100000 0
2.900000 0.100000 0
3.000000 0.100000 0
3.100000 0.100000 0
3.200000 0.100000 0
3.300000 0.100000 0
3.400000 0.100000 0
3.500000 0.100000 0
3.600000 0.100000 0
3.700000 0.100000 0
3.800000 0.100000 0
3.900000 0.100000 0
4.000000 0.100000 0
4.100000 0.100000 0
4.200000 0.100000 0
4.300000 0.100000 0
4.400000 0.100000 0
4.500000 0.100000 0
4.600000 0.100000 0
4.700000 0.100000 0
4.800000 0.100000 0
4.900000 0.100000 0
5.000000 0.100000 0
5.100000 0.100000 0
5.200000 0.100000 0
5.300000 0.100000 0
5.400000 0.100000 0
5.500000 0.100000 0
5.600000 0.100000 0
5.700000 0.100000 0
5.800000 0.100000 0
5.900000 0.100000 0
6.000000 0.100000 0
6.100000 0.100000 0
6.200000 0.100000 0
6.300000 0.100000 0
6.400000 0.100000 0
6.500000 0.100000 0
6.600000 0.100000 0
6.700000 0.100000 0
6.800000 0.100000 0
6.900000 0.100000 0
7.000000 0.100000 0
7.100000 0.100000 0
7.200000 0.100000 0
7.300000 0.100000 0
7.400000 0.100000 0
7.500000 0.100000 0
7.600000 0.100000 0
7.700000 0.100000 0
7.800000 0.100000 0
7.900000 0.100000 0
8.000000 0.100000 0
8.100000 0.100000 0
8.200000 0.100000 0
8.300000 0.100000 0
8.400000 0.100000 0
8.500000 0.100000 0
8.600000 0.100000 0
8.700000 0.100000 0
8.800000 0.100000 0
8.900000 0.100000 0
9.000000 0.100000 0
9.100000 0.100000 0
9.200000 0.100000 0
9.300000 0.100000 0
9.400000 0.100000 0
9.500000 0.100000 0
9.600000 0.100000 0
9.700000 0.100000 0
9.800000 0.100000 0
9.900000 0.100000 0
10.000000 0.100000 0
0.000000 0.200000 0
0.100000 0.200000 0
0.200000 0.200000 0
0.300000 0.200000 0
0.400000 0.200000 0
0.500000 0.200000 0
0.600000 0.200000 0
0.700000 0.200000 0
0.800000 0.200000 0
0.900000 0.200000 0
1.000000 0.200000 0
1.100000 0.200000 0
1.200000 0.200000 0
1.300000 0.200000 0
1.400000 0.200000 0
1.500000 0.200000 0
1.600000 0.200000 0
1.700000 0.200000 0
1.800000 0.200000 0
1.900000 0.200000 0
2.000000 0.200000 0
2.100000 0.200000 0
2.200000 0.200000 0
2.300000 0.200000 0
2.400000 0.200000 0
2.500000 0.200000 0
2.600000 0.200000 0
2.700000 0.200000 0
2.800000 0.200000 0
2.900000 0.200000 0
3.000000 0.200000 0
3.100000 0.200000 0
3.200000 0.200000 0
3.300000 0.200000 0
3.400000 0.200000 0
3.500000 0.200000 0
3.600000 0.200000 0
3.700000 0.200000 0
3.800000 0.200000 0
3.900000 0.200000 0
4.000000 0.200000 0
4.100000 0.200000 0
4.200000 0.200000 0
4.300000 0.200000 0
4.400000 0.200000 0
4.500000 0.200000 0
4.600000 0.200000 0
4.700000 0.200000 0
4.800000 0.200000 0
4.900000 0.200000 0
5.000000 0.200000 0
5.100000 0.200000 0
5.200000 0.200000 0
5.300000 0.200000 0
5.400000 0.200000 0
5.500000 0.200000 0
5.600000 0.200000 0
5.700000 0.200000 0
5.800000 0.200000 0
5.900000 0.200000 0
6.000000 0.200000 0
6.100000 0.200000 0
6.200000 0.200000 0
6.300000 0.200000 0
6.400000 0.200000 0
6.500000 0.200000 0
6.600000 0.200000 0
6.700000 0.200000 0
6.800000 0.200000 0
6.900000 0.200000 0
7.000000 0.200000 0
7.100000 0.200000 0
7.200000 0.200000 0
7.300000 0.200000 0
7.400000 0.200000 0
7.500000 0.200000 0
7.600000 0.200000 0
7.700000 0.200000 0
7.800000 0.200000 0
7.900000 0.200000 0
8.000000 0.200000 0
8.100000 0.200000 0
8.200000 0.200000 0
8.300000 0.200000 0
8.400000 0.200000 0
8.500000 0.200000 0
8.600000 0.200000 0
8.700000 0.200000 0
8.800000 0.200000 0
8.900000 0.200000 0
9.000000 0.200000 0
9.100000 0.200000 0
9.200000 0.200000 0
9.300000 0.200000 0
9.400000 0.200000 0
9.500000 0.200000 0
9.600000 0.200000 0
9.700000 0.200000 0
9.800000 0.200000 0
9.900000 0.200000 0
10.000000 0.200000 0
0.000000 0.300000 0
0.100000 0.300000 0
0.200000 0.300000 0
0.300000 0.300000 0
0.400000 0.300000 0
0.500000 0.300000 0
0.600000 0.300000 0
0.700000 0.300000 0
0.800000 0.300000 0
0.900000 0.300000 0
1.000000 0.300000 0
1.100000 0.300000 0
1.200000 0.300000 0
1.300000 0.300000 0
1.400000 0.300000 0
1.500000 0.300000 0
1.600000 0.300000 0
1.700000 0.300000 0
1.800000 0.300000 0
1.900000 0.300000 0
2.000000 0.300000 0
2.100000 0.300000 0
2.200000 0.300000 0
2.300000 0.300000 0
2.400000 0.300000 0
2.500000 0.300000 0
2.600000 0.300000 0
2.700000 0.300000 0
2.800000 0.300000 0
2.900000 0.300000 0
3.000000 0.300000 0
3.100000 0.300000 0
3.200000 0.300000 0
3.300000 0.300000 0
3.400000 0.300000 0
3.500000 0.300000 0
3.600000 0.300000 0
3.700000 0.300000 0
3.800000 0.300000 0
3.900000 0.300000 0
4.000000 0.300000 0
4.100000 0.300000 0
4.200000 0.300000 0
4.300000 0.300000 0
4.400000 0.300000 0
4.500000 0.300000 0
4.600000 0.300000 0
4.700000 0.300000 0
4.800000 0.300000 0
4.900000 0.300000 0
5.000000 0.300000 0
5.100000 0.300000 0
5.200000 0.300000 0
5.300000 0.300000 0
5.400000 0.300000 0
5.500000 0.300000 0
5.600000 0.300000 0
5.700000 0.300000 0
5.800000 0.300000 0
5.900000 0.300000 0
6.000000 0.300000 0
6.100000 0.300000 0
6.200000 0.300000 0
6.300000 0.300000 0
6.400000 0.300000 0
6.500000 0.300000 0
6.600000 0.300000 0
6.700000 0.300000 0
6.800000 0.300000 0
6.900000 0.300000 0
7.000000 0.300000 0
7.100000 0.300000 0
7.200000 0.300000 0
7.300000 0.300000 0
7.400000 0.300000 0
7.500000 0.300000 0
7.600000 0.300000 0
7.700000 0.300000 0
7.800000 0.300000 0
7.900000 0.300000 0
8.000000 0.300000 0
8.100000 0.300000 0
8.200000 0.300000 0
8.300000 0.300000 0
8.400000 0.300000 0
8.500000 0.300000 0
8.600000 0.300000 0
8.700000 0.300000 0
8.800000 0.300000 0
8.900000 0.300000 0
9.000000 0.300000 0
9.100000 0.300000 0
9.200000 0.300000 0
9.300000 0.300000 0
9.400000 0.300000 0
9.500000 0.300000 0
9.600000 0.300000 0
9.700000 0.300000 0
9.800000 0.300000 0
9.900000 0.300000 0
10.000000 0.300000 0
0.000000 0.400000 0
0.100000 0.400000 0
0.200000 0.400000 0
0.300000 0.400000 0
0.400000 0.400000 0
0.500000 0.400000 0
0.600000 0.400000 0
0.700000 0.400000 0
0.800000 0.400000 0
0.900000 0.400000 0
1.000000 0.400000 0
1.100000 0.400000 0
1.200000 0.400000 0
1.300000 0.400000 0
1.400000 0.400000 0
1.500000 0.400000 0
1.600000 0.400000 0
1.700000 0.400000 0
1.800000 0.400000 0
1.900000 0.400000 0
2.000000 0.400000 0
2.100000 0.400000 0
2.200000 0.400000 0
2.300000 0.400000 0
2.400000 0.400000 0
2.500000 0.400000 0
2.600000 0.400000 0
2.700000 0.400000 0
2.800000 0.400000 0
2.900000 0.400000 0
3.000000 0.400000 0
3.100000 0.400000 0
3.200000 0.400000 0
3.300000 0.400000 0
3.400000 0.400000 0
3.500000 0.400000 0
3.600000 0.400000 0
3.700000 0.400000 0
3.800000 0.400000 0
3.900000 0.400000 0
4.000000 0.400000 0
4.100000 0.400000 0
4.200000 0.400000 0
4.300000 0.400000 0
4.400000 0.400000 0
4.500000 0.400000 0
4.600000 0.400000 0
4.700000 0.400000 0
4.800000 0.400000 0
4.900000 0.400000 0
5.000000 0.400000 0
5.100000 0.400000 0
5.200000 0.400000 0
5.300000 0.400000 0
5.400000 0.400000 0
5.500000 0.400000 0
5.600000 0.400000 0
5.700000 0.400000 0
5.800000 0.400000 0
5.900000 0.400000 0
6.000000 0.400000 0
6.100000 0.400000 0
6.200000 0.400000 0
6.300000 0.400000 0
6.400000 0.400000 0
6.500000 0.400000 0
6.600000 0.400000 0
6.700000 0.400000 0
6.800000 0.400000 0
6.900000 0.400000 0
7.000000 0.400000 0
7.100000 0.400000 0
7.200000 0.400000 0
7.300000 0.400000 0
7.400000 0.400000 0
7.500000 0.400000 0
7.600000 0.400000 0
7.700000 0.400000 0
7.800000 0.400000 0
7.900000 0.400000 0
8.000000 0.400000 0
8.100000 0.400000 0
8.200000 0.400000 0
8.300000 0.400000 0
8.400000 0.400000 0
8.500000 0.400000 0
8.600000 0.400000 0
[...]
POINT_DATA 2121 

VECTORS velocity float
0.500000 0.000000 0
-0.000026 0.000000 0
-0.000070 0.000000 0
-0.000112 0.000000 0
-0.000138 0.000000 0
-0.000126 0.000000 0
-0.000040 0.000000 0
0.000153 0.000000 0
0.000465 0.000000 0
0.000862 0.000000 0
0.001253 0.000000 0
0.001618 0.000000 0
0.002015 0.000000 0
0.002390 0.000000 0
0.002657 0.000000 0
0.002762 0.000000 0
0.002657 0.000000 0
0.002565 0.000000 0
0.001229 0.000000 0
-0.001465 0.000000 0
-0.005483 0.000000 0
-0.010842 0.000000 0
-0.016145 0.000000 0
-0.019529 0.000000 0
-0.020309 0.000000 0
-0.017222 0.000000 0
-0.009317 0.000000 0
-0.001120 0.000000 0
0.005417 0.000000 0
0.009704 0.000000 0
0.011813 0.000000 0
0.012181 0.000000 0
0.011580 0.000000 0
0.010541 0.000000 0
0.009273 0.000000 0
0.007809 0.000000 0
0.006152 0.000000 0
0.004352 0.000000 0
0.002511 0.000000 0
0.000828 0.000000 0
-0.000335 0.000000 0
-0.000642 0.000000 0
-0.000247 0.000000 0
0.000418 0.000000 0
0.001043 0.000000 0
0.001132 0.000000 0
0.000452 0.000000 0
0.005727 0.000000 0
0.021526 0.000000 0
0.007396 0.000000 0
-0.000121 0.000000 0
-0.004743 0.000000 0
-0.004854 0.000000 0
-0.003189 0.000000 0
-0.002154 0.000000 0
0.001820 0.000000 0
0.007441 0.000000 0
0.010172 0.000000 0
0.008057 0.000000 0
0.004260 0.000000 0
0.001017 0.000000 0
-0.001326 0.000000 0
-0.002428 0.000000 0
-0.001781 0.000000 0
0.000157 0.000000 0
0.002418 0.000000 0
0.004009 0.000000 0
0.004004 0.000000 0
0.002261 0.000000 0
-0.000512 0.000000 0
-0.003430 0.000000 0
-0.005989 0.000000 0
-0.008229 0.000000 0
-0.010266 0.000000 0
-0.012005 0.000000 0
-0.013081 0.000000 0
-0.013037 0.000000 0
-0.011380 0.000000 0
-0.008368 0.000000 0
-0.007677 0.000000 0
-0.008470 0.000000 0
-0.008542 0.000000 0
-0.007834 0.000000 0
-0.006838 0.000000 0
-0.005266 0.000000 0
-0.002927 0.000000 0
-0.000064 0.000000 0
0.002845 0.000000 0
0.005717 0.000000 0
0.009551 0.000000 0
0.015664 0.000000 0
0.024183 0.000000 0
0.011713 0.000000 0
0.003381 0.000000 0
-0.000406 0.000000 0
0.001091 0.000000 0
0.001578 0.000000 0
0.001042 0.000000 0
0.000170 0.000000 0
-0.000084 0.000000 0
-0.000007 0.000000 0
1.000000 -0.004482 0
1.009529 -0.013997 0
1.029410 -0.024314 0
1.060109 -0.034830 0
1.101738 -0.044715 0
1.153496 -0.052532 0
1.212611 -0.056252 0
1.274146 -0.053369 0
1.328183 -0.043055 0
1.367051 -0.027283 0
1.386581 -0.009039 0
1.386719 0.009319 0
1.368737 0.026781 0
1.333645 0.042734 0
1.283410 0.056461 0
1.220538 0.067273 0
1.147671 0.072656 0
1.067328 0.087652 0
0.977838 0.094181 0
0.887023 0.074268 0
0.813024 0.038364 0
0.784855 -0.020513 0
0.823729 -0.088378 0
0.939796 -0.148708 0
1.114450 -0.192671 0
1.335997 -0.194903 0
1.535081 -0.148106 0
1.665761 -0.079606 0
1.719798 -0.014481 0
1.710589 0.034823 0
1.658631 0.065557 0
1.583677 0.080335 0
1.499852 0.084412 0
1.415303 0.082248 0
1.335717 0.076037 0
1.264853 0.066644 0
1.205187 0.054423 0
1.158727 0.039845 0
1.127358 0.023868 0
1.112483 0.008437 0
1.113228 -0.003114 0
1.123156 -0.007529 0
1.131862 -0.004450 0
1.132447 0.003893 0
1.122437 0.013943 0
1.101571 0.018952 0
1.069079 0.026511 0
1.015670 0.122124 0
0.923076 0.218856 0
0.823297 0.128269 0
0.667746 -0.001124 0
0.587518 -0.055867 0
0.665449 -0.069530 0
0.735643 -0.050693 0
0.740607 -0.029625 0
0.690783 0.013514 0
0.598697 0.073209 0
0.492467 0.108114 0
0.407552 0.094859 0
0.359118 0.053180 0
0.340604 0.010926 0
0.345592 -0.022149 0
0.372823 -0.040139 0
0.408385 -0.035551 0
0.428187 -0.012120 0
0.416735 0.018668 0
0.374893 0.044312 0
0.318094 0.052639 0
0.269566 0.040248 0
0.247191 0.013660 0
0.254974 -0.016808 0
0.288885 -0.043067 0
0.340314 -0.064096 0
0.404357 -0.080840 0
0.479357 -0.093056 0
0.564269 -0.100315 0
0.657660 -0.098620 0
0.754619 -0.086799 0
0.850988 -0.067663 0
0.939621 -0.055546 0
1.018219 -0.058555 0
1.081797 -0.060710 0
1.137368 -0.055444 0
1.187296 -0.047927 0
1.232433 -0.036727 0
1.265523 -0.019673 0
1.280448 0.001611 0
1.273687 0.024145 0
1.245118 0.048076 0
1.194899 0.080161 0
1.122910 0.130032 0
1.037112 0.153636 0
0.962620 0.101880 0
0.913150 0.028629 0
0.876808 -0.003556 0
0.848827 -0.003378 0
0.831955 0.000438 0
0.826663 -0.002361 0
0.832767 -0.007843 0
0.848439 -0.005424 0
0.848735 -0.000090 0
1.000000 -0.009544 0
1.009640 -0.029430 0
1.030214 -0.050592 0
1.062186 -0.072339 0
1.106433 -0.093397 0
1.163472 -0.110882 0
1.231111 -0.120659 0
1.307257 -0.115581 0
1.372815 -0.092911 0
1.418088 -0.058403 0
1.438416 -0.019673 0
1.437195 0.017840 0
1.418016 0.053071 0
1.380667 0.085324 0
1.327746 0.113104 0
1.261838 0.135738 0
1.185063 0.153208 0
1.097783 0.169832 0
1.016633 0.180305 0
0.929330 0.164813 0
0.804389 0.102166 0
0.732827 -0.010707 0
0.716701 -0.154943 0
0.781248 -0.290722 0
0.948362 -0.396203 0
1.192757 -0.420633 0
1.435369 -0.329765 0
1.611887 -0.184719 0
1.706044 -0.044830 0
1.732257 0.061166 0
1.701766 0.126912 0
1.634530 0.158779 0
1.552579 0.168374 0
1.470125 0.164135 0
1.394014 0.150452 0
1.326286 0.130532 0
1.267856 0.106128 0
1.220453 0.077832 0
1.186503 0.046249 0
1.169977 0.014134 0
1.175232 -0.010668 0
1.194661 -0.018628 0
1.207690 -0.009285 0
1.204996 0.009433 0
1.188696 0.030884 0
1.163179 0.053365 0
1.124230 0.085909 0
1.072042 0.146013 0
1.081095 0.192382 0
1.077368 0.255339 0
0.958094 0.235789 0
0.829998 0.002307 0
0.663361 -0.148114 0
0.597990 -0.075147 0
0.577478 0.044871 0
0.527328 0.141922 0
0.451469 0.198328 0
0.390807 0.191156 0
0.359355 0.133361 0
0.340574 0.066959 0
0.319725 0.013538 0
0.300422 -0.032206 0
0.299186 -0.062781 0
0.310202 -0.055351 0
0.311727 -0.008337 0
0.287783 0.053308 0
0.240926 0.098655 0
0.190426 0.105341 0
0.160413 0.070918 0
0.163043 0.014606 0
0.193783 -0.041680 0
0.239329 -0.085326 0
0.287473 -0.115458 0
0.333200 -0.139028 0
0.376510 -0.159898 0
0.421910 -0.178289 0
0.474709 -0.190337 0
0.541997 -0.193314 0
0.626403 -0.184989 0
0.725978 -0.167219 0
0.824946 -0.142164 0
0.911623 -0.119138 0
0.986908 -0.105489 0
1.047943 -0.095055 0
1.092215 -0.078218 0
1.126880 -0.048007 0
1.148291 -0.008156 0
1.151507 0.035336 0
1.139369 0.078793 0
1.117453 0.122214 0
1.096241 0.157792 0
1.099366 0.160294 0
1.102359 0.123964 0
1.077091 0.085814 0
1.044025 0.064326 0
1.030367 0.044855 0
1.027533 0.022165 0
1.020858 -0.000811 0
1.004537 -0.021775 0
0.978156 -0.015966 0
0.967490 -0.000405 0
1.000000 -0.014131 0
1.007894 -0.044223 0
1.028073 -0.076864 0
1.059787 -0.111053 0
1.105622 -0.146006 0
1.168880 -0.177213 0
1.248081 -0.200039 0
1.356491 -0.195075 0
1.441740 -0.153888 0
1.491819 -0.092885 0
1.512247 -0.028148 0
1.509191 0.029717 0
1.484631 0.083307 0
1.439112 0.133003 0
1.377738 0.175289 0
1.304681 0.209956 0
1.224212 0.236710 0
1.137942 0.256080 0
1.042094 0.262633 0
0.885371 0.286510 0
0.756719 0.234866 0
0.676401 0.067174 0
0.511245 -0.136801 0
0.429118 -0.380371 0
0.485221 -0.604181 0
0.704683 -0.681911 0
1.100201 -0.567238 0
1.323825 -0.350282 0
1.469268 -0.134851 0
1.573206 0.039100 0
1.620940 0.163283 0
1.611430 0.229523 0
1.557135 0.248817 0
1.480060 0.240813 0
1.398909 0.219876 0
1.321790 0.192803 0
1.252395 0.160257 0
1.194943 0.121199 0
1.151067 0.074346 0
1.128535 0.019710 0
1.146949 -0.027795 0
1.199498 -0.039984 0
1.234791 -0.014781 0
1.234653 0.022890 0
1.205789 0.055762 0
1.166868 0.083422 0
1.132219 0.117652 0
1.109177 0.165262 0
1.106702 0.213533 0
1.089522 0.251274 0
1.113977 0.246250 0
1.061356 0.238870 0
0.849943 0.162483 0
0.656187 0.035194 0
0.539224 0.041041 0
0.460764 0.139528 0
0.401613 0.209735 0
0.377631 0.200232 0
0.388608 0.145098 0
0.418770 0.092815 0
0.455195 0.051083 0
0.479994 -0.001604 0
0.471386 -0.049914 0
0.433851 -0.048087 0
0.386380 0.010304 0
0.341172 0.089476 0
0.286053 0.141675 0
0.234614 0.133158 0
0.220926 0.067637 0
0.249548 -0.019704 0
0.308922 -0.093088 0
0.382530 -0.136751 0
0.453798 -0.157961 0
0.509435 -0.169871 0
0.539928 -0.181760 0
0.546985 -0.198509 0
0.542168 -0.218702 0
0.540992 -0.238488 0
0.553648 -0.251639 0
0.588069 -0.254084 0
0.643311 -0.244197 0
0.717833 -0.222668 0
0.795557 -0.191760 0
0.864318 -0.153231 0
0.915174 -0.115662 0
0.951914 -0.075746 0
0.977236 -0.023014 0
0.993863 0.033069 0
1.004479 0.082132 0
1.016329 0.123290 0
1.035512 0.148119 0
1.067760 0.147519 0
1.092668 0.124156 0
1.088696 0.086963 0
1.066865 0.043168 0
1.039504 0.013115 0
1.023164 0.009947 0
1.011443 0.020635 0
0.994634 0.034859 0
0.974763 0.031623 0
0.964044 0.021231 0
1.000000 -0.017447 0
1.002649 -0.057516 0
1.023395 -0.102490 0
1.052621 -0.149893 0
1.097571 -0.202494 0
1.164746 -0.253345 0
1.256425 -0.308273 0
1.433030 -0.309242 0
1.543211 -0.228242 0
1.590469 -0.128912 0
1.605180 -0.037046 0
1.600136 0.045455 0
1.575322 0.123149 0
1.526322 0.192216 0
1.449823 0.247534 0
1.358050 0.289262 0
1.260561 0.319946 0
1.152880 0.351948 0
1.082310 0.432874 0
1.123327 0.450186 0
0.948361 0.311134 0
0.493107 0.234766 0
0.263485 0.092340 0
0.145112 -0.264700 0
0.107982 -0.671770 0
0.205243 -1.035615 0
0.498672 -0.948908 0
0.877592 -0.553787 0
1.082999 -0.294212 0
1.223492 -0.090507 0
1.332438 0.088687 0
1.417282 0.222584 0
1.450088 0.299744 0
1.430746 0.322362 0
1.376094 0.308723 0
1.307664 0.277048 0
1.244345 0.232975 0
1.185779 0.179160 0
1.121016 0.112659 0
1.076261 0.018255 0
1.096260 -0.081629 0
1.191436 -0.106468 0
1.274832 -0.044438 0
1.331851 0.038438 0
1.354501 0.098673 0
1.340456 0.126939 0
1.295924 0.143604 0
1.238360 0.171533 0
1.185232 0.212042 0
1.140274 0.248068 0
1.109482 0.263959 0
1.067939 0.266345 0
1.051779 0.257059 0
0.927646 0.235576 0
0.750080 0.240298 0
0.611153 0.279538 0
0.553171 0.281466 0
0.564096 0.204166 0
0.605799 0.092227 0
0.642090 0.000378 0
0.662336 -0.047681 0
0.668240 -0.048392 0
0.652370 -0.016632 0
0.627117 0.029660 0
0.584234 0.084347 0
0.514960 0.153641 0
0.424722 0.205219 0
0.353390 0.170474 0
0.347737 0.055990 0
0.379476 -0.073385 0
0.433893 -0.174655 0
0.508301 -0.230196 0
0.597169 -0.242357 0
0.685286 -0.225152 0
0.756401 -0.197443 0
0.797248 -0.180524 0
0.803354 -0.184339 0
0.778583 -0.204789 0
0.736739 -0.232061 0
0.694905 -0.256878 0
0.669304 -0.271925 0
0.666370 -0.271381 0
0.684949 -0.251971 0
0.719472 -0.214669 0
0.762306 -0.165811 0
0.800576 -0.110067 0
0.835713 -0.050103 0
0.872663 0.008095 0
0.910040 0.056329 0
0.945936 0.091183 0
0.977216 0.106361 0
0.996353 0.103137 0
1.001275 0.103029 0
0.994643 0.111617 0
0.985208 0.113519 0
0.966232 0.088556 0
0.948763 0.050226 0
0.942910 0.027719 0
0.947001 0.014904 0
0.950154 0.014624 0
0.945616 0.021044 0
1.000000 -0.016790 0
0.999850 -0.067630 0
1.012072 -0.126841 0
1.034948 -0.185234 0
1.075937 -0.258135 0
1.134690 -0.336071 0
1.241456 -0.468326 0
1.549704 -0.481864 0
1.645044 -0.311329 0
1.654105 -0.154856 0
1.647036 -0.037817 0
1.642280 0.059573 0
1.642520 0.157119 0
1.626208 0.258500 0
1.566827 0.343559 0
1.474255 0.399216 0
1.353850 0.441878 0
1.225206 0.434329 0
1.130103 0.292184 0
1.009692 0.420458 0
0.712462 0.865084 0
0.478361 0.752047 0
0.498884 0.211192 0
0.431553 -0.224870 0
0.335240 -0.664314 0
0.229973 -1.072603 0
0.157594 -1.239590 0
0.462029 -0.934611 0
0.713717 -0.480752 0
0.871434 -0.210341 0
1.009625 -0.030508 0
1.126511 0.111872 0
1.215643 0.235353 0
1.278443 0.314807 0
1.310261 0.342958 0
1.309753 0.324553 0
1.264936 0.282142 0
1.189244 0.244529 0
1.124084 0.183865 0
1.106476 0.044468 0
1.070624 -0.142968 0
0.993615 -0.218553 0
1.008975 -0.155194 0
1.078581 -0.056777 0
1.152929 0.047160 0
1.195246 0.142002 0
1.190645 0.219752 0
1.149677 0.275958 0
1.098165 0.311622 0
1.057446 0.327028 0
1.035903 0.318590 0
1.020807 0.296578 0
0.999327 0.302780 0
0.951693 0.336898 0
0.891112 0.357539 0
0.862103 0.336442 0
0.878750 0.256797 0
0.916569 0.147609 0
0.937478 0.067109 0
0.926596 0.036283 0
0.891808 0.024939 0
0.854781 0.008367 0
0.835414 -0.008785 0
0.818832 0.020055 0
0.784335 0.122467 0
0.701942 0.248994 0
0.592554 0.303251 0
0.528197 0.210149 0
0.513104 0.041557 0
0.520074 -0.105854 0
0.537044 -0.221906 0
0.567011 -0.300022 0
0.620094 -0.334940 0
0.695265 -0.329097 0
0.781005 -0.293717 0
0.858972 -0.245457 0
0.914857 -0.200031 0
0.942937 -0.171867 0
0.940561 -0.167956 0
0.909984 -0.186645 0
0.856597 -0.215658 0
0.796676 -0.238309 0
0.748059 -0.244859 0
0.721520 -0.230584 0
0.718548 -0.196763 0
0.733111 -0.149152 0
0.760033 -0.095099 0
0.794322 -0.041256 0
0.830451 0.008860 0
0.860989 0.056115 0
0.884611 0.097703 0
0.898851 0.123461 0
0.911836 0.125867 0
0.936119 0.103030 0
0.970602 0.071578 0
1.007560 0.049560 0
1.021592 0.033269 0
1.012544 0.022397 0
0.994904 0.027616 0
0.966679 0.033007 0
0.956893 0.030600 0
1.000000 -0.017307 0
1.003097 -0.069600 0
1.000768 -0.137593 0
1.004536 -0.213762 0
1.038199 -0.302240 0
1.059380 -0.418867 0
1.216184 -0.723290 0
1.583274 -0.712833 0
1.486296 -0.332646 0
1.375673 -0.130905 0
1.337977 -0.025223 0
1.342291 0.049969 0
1.408921 0.139220 0
1.491136 0.267907 0
1.497317 0.399485 0
1.491074 0.502238 0
1.439843 0.568994 0
1.351716 0.575692 0
1.140568 0.648385 0
0.735889 0.867826 0
0.697075 0.842462 0
1.073520 0.448342 0
1.048918 0.139145 0
0.853818 -0.101059 0
0.673524 -0.470193 0
0.450397 -0.857971 0
0.263048 -1.180966 0
0.229822 -1.109912 0
0.448370 -0.703619 0
0.599259 -0.386417 0
0.731095 -0.166391 0
0.856808 0.016565 0
0.973015 0.147812 0
1.064788 0.227743 0
1.123045 0.277412 0
1.143956 0.322372 0
1.127515 0.353485 0
1.168000 0.320013 0
1.241070 0.195428 0
1.118108 0.071717 0
0.888861 0.031235 0
0.677694 -0.044816 0
0.587658 -0.129402 0
0.586452 -0.105514 0
0.631146 -0.017989 0
0.688572 0.089226 0
0.739775 0.189177 0
0.780082 0.264017 0
0.817110 0.304277 0
0.856411 0.310335 0
0.894064 0.300602 0
0.916175 0.302925 0
0.917412 0.326178 0
0.929349 0.343796 0
0.965451 0.329893 0
1.019848 0.291905 0
1.069595 0.227005 0
1.094433 0.145443 0
1.091796 0.082205 0
1.082057 0.046053 0
1.078036 0.024139 0
1.075403 0.008008 0
1.069240 0.019323 0
1.054355 0.080745 0
1.030788 0.201243 0
0.898925 0.345428 0
0.768753 0.378970 0
0.730603 0.249929 0
0.713737 0.064119 0
0.703998 -0.097318 0
0.687750 -0.221587 0
0.664173 -0.313240 0
0.653532 -0.370605 0
0.672682 -0.386057 0
0.725880 -0.361145 0
0.796009 -0.314371 0
0.858632 -0.268298 0
0.907105 -0.230489 0
0.944496 -0.199104 0
0.968771 -0.172910 0
0.968375 -0.158613 0
0.939640 -0.162839 0
0.889706 -0.176812 0
0.834235 -0.185155 0
0.789056 -0.177399 0
0.762797 -0.151550 0
0.755920 -0.111313 0
0.763925 -0.062322 0
0.781427 -0.010337 0
0.806508 0.037023 0
0.843096 0.068500 0
0.892121 0.075913 0
0.945400 0.065761 0
0.988765 0.052851 0
1.007349 0.042078 0
1.005309 0.037567 0
0.989527 0.045241 0
0.962026 0.054406 0
0.932846 0.060769 0
0.912462 0.052635 0
0.903718 0.040595 0
1.000000 -0.019897 0
1.002490 -0.068410 0
0.994174 -0.128285 0
0.975552 -0.222670 0
0.986384 -0.312983 0
0.963720 -0.514060 0
1.071464 -0.992225 0
0.772949 -0.648249 0
-0.001603 0.000000 0
-0.004380 0.000000 0
0.517677 0.002102 0
0.517367 -0.011372 0
0.563105 0.008273 0
1.031833 0.170101 0
1.064372 0.343619 0
1.102395 0.456688 0
1.249479 0.581233 0
1.297415 0.733602 0
1.196861 0.908008 0
1.196814 0.863949 0
1.344948 0.527450 0
1.233363 0.400201 0
0.898230 0.430892 0
0.719891 0.150521 0
0.634838 -0.260896 0
0.518179 -0.662129 0
0.367388 -1.019017 0
0.213350 -1.119935 0
0.313026 -0.850191 0
0.425920 -0.493068 0
0.509353 -0.288059 0
0.628213 -0.130049 0
0.770461 0.027372 0
0.888827 0.164777 0
1.001149 0.263790 0
1.098958 0.320082 0
1.163337 0.258099 0
1.116652 0.130976 0
0.973808 0.233759 0
0.753288 0.396678 0
0.572270 0.297448 0
0.488520 0.082652 0
0.408464 -0.063950 0
0.360495 -0.100261 0
0.356383 -0.054956 0
0.390198 0.033377 0
0.449329 0.128246 0
0.524349 0.198626 0
0.607686 0.235297 0
0.687629 0.250079 0
0.752345 0.258830 0
0.802930 0.273234 0
0.852595 0.289611 0
0.916413 0.288863 0
0.984539 0.267045 0
1.047988 0.232303 0
1.107254 0.182217 0
1.145213 0.125413 0
1.162430 0.079490 0
1.169238 0.050049 0
1.172398 0.031598 0
1.173946 0.017169 0
1.174082 0.012268 0
1.170111 0.058512 0
1.086929 0.277904 0
0.959870 0.511035 0
0.924673 0.471579 0
0.924058 0.265170 0
0.918198 0.068168 0
0.902552 -0.079861 0
0.877471 -0.182076 0
0.841787 -0.265798 0
0.791286 -0.343442 0
0.738279 -0.401439 0
0.713415 -0.417039 0
0.734863 -0.378204 0
0.777557 -0.311123 0
0.815350 -0.257727 0
0.850720 -0.229618 0
0.885055 -0.210520 0
0.921241 -0.186522 0
0.949973 -0.159637 0
0.959788 -0.139452 0
0.947049 -0.129932 0
0.918504 -0.125322 0
0.886689 -0.116013 0
0.863680 -0.096225 0
0.856408 -0.066762 0
0.866614 -0.033722 0
0.892440 -0.005553 0
0.927957 0.012090 0
0.961458 0.021157 0
0.980126 0.029223 0
0.979930 0.041080 0
0.964774 0.055034 0
0.937533 0.067381 0
0.908345 0.076552 0
0.886553 0.079078 0
0.871529 0.077179 0
0.866846 0.062135 0
0.860865 0.047790 0
1.000000 -0.019807 0
0.999899 -0.063787 0
0.977178 -0.110660 0
0.973327 -0.205977 0
0.907203 -0.290413 0
0.895769 -0.503952 0
0.643681 -0.636251 0
0.000000 -0.000895 0
-0.643647 0.282521 0
-0.548411 0.000000 0
0.000000 0.000000 0
-0.005877 -0.003439 0
-0.015189 -0.375248 0
0.140186 -0.233362 0
0.440982 0.328921 0
0.543900 0.317128 0
0.865553 0.373970 0
1.013731 0.628307 0
1.133734 0.748983 0
1.134446 0.719736 0
0.985472 0.805911 0
0.586592 0.895056 0
0.418875 0.652614 0
0.505682 0.162330 0
0.574101 -0.268484 0
0.593979 -0.590524 0
0.479271 -0.876139 0
0.312986 -1.055552 0
0.281252 -0.916192 0
0.370661 -0.582746 0
0.433864 -0.368685 0
0.524146 -0.244544 0
0.685687 -0.112803 0
0.851125 -0.002946 0
0.958149 0.067281 0
1.005168 0.160184 0
0.994784 0.335791 0
0.816936 0.509543 0
0.552339 0.558794 0
0.470828 0.473258 0
0.476860 0.296004 0
0.440769 0.118991 0
0.355891 -0.001374 0
0.269278 -0.053430 0
0.215094 -0.047689 0
0.208443 -0.003716 0
0.250186 0.055028 0
0.328745 0.105663 0
0.424470 0.141001 0
0.521834 0.165680 0
0.613465 0.185305 0
0.701119 0.202680 0
0.791524 0.212699 0
0.882884 0.211856 0
0.963028 0.198322 0
1.028762 0.169195 0
1.087596 0.129785 0
1.133747 0.090272 0
1.165078 0.058186 0
1.185797 0.036090 0
1.199188 0.019436 0
1.203899 0.006330 0
1.187541 0.023164 0
1.117614 0.167903 0
0.994212 0.411490 0
0.984438 0.507690 0
1.052021 0.414788 0
1.080579 0.256411 0
1.075277 0.085631 0
1.056370 -0.056585 0
1.044118 -0.160815 0
1.045308 -0.227050 0
1.047341 -0.267091 0
1.032229 -0.308181 0
0.979827 -0.357724 0
0.892540 -0.378508 0
0.809449 -0.348780 0
0.777438 -0.303647 0
0.782107 -0.268805 0
0.797580 -0.243427 0
0.819131 -0.223526 0
0.846653 -0.201382 0
0.881422 -0.173886 0
0.917187 -0.143869 0
0.944523 -0.117037 0
0.957447 -0.096724 0
0.957194 -0.081029 0
0.950458 -0.065254 0
0.944916 -0.046368 0
0.943598 -0.024319 0
0.943753 -0.000519 0
0.939433 0.023744 0
0.926998 0.047289 0
0.908600 0.068203 0
0.888827 0.084475 0
0.871511 0.093995 0
0.859501 0.096220 0
0.853407 0.091221 0
0.851741 0.080476 0
0.853166 0.063299 0
0.848221 0.052446 0
1.000000 -0.019806 0
0.989498 -0.045600 0
0.971637 -0.101718 0
0.956780 -0.152700 0
0.874690 -0.235430 0
0.817087 -0.250543 0
0.494033 -0.186248 0
0.323376 -0.094359 0
0.000000 0.000000 0
0.000000 0.000000 0
0.000000 0.000000 0
0.000000 0.000000 0
0.000724 -0.133629 0
-0.365175 -0.286072 0
-0.080001 -0.060098 0
0.123810 0.032114 0
0.366584 0.111399 0
0.464648 0.465418 0
0.632478 0.787289 0
0.486476 1.012207 0
0.234472 1.075301 0
0.148650 0.966794 0
0.347262 0.511798 0
0.545582 -0.004709 0
0.638864 -0.349196 0
0.700169 -0.567302 0
0.692288 -0.738026 0
0.548562 -0.921919 0
0.381948 -0.907868 0
0.404392 -0.645682 0
0.465201 -0.441547 0
0.489987 -0.381873 0
0.558380 -0.299608 0
0.646476 -0.107686 0
0.663688 0.109747 0
0.621632 0.283448 0
0.541106 0.446332 0
0.477280 0.573423 0
0.453886 0.579868 0
0.486786 0.472158 0
0.504628 0.327509 0
0.453563 0.203623 0
0.355155 0.107543 0
0.249290 0.040539 0
0.166169 0.005883 0
0.125495 -0.001712 0
0.135935 0.007947 0
0.191181 0.024346 0
0.275993 0.042212 0
0.376043 0.061088 0
0.481735 0.079550 0
0.590901 0.095179 0
0.701095 0.107849 0
0.806561 0.117364 0
0.902784 0.121172 0
0.982018 0.107740 0
1.043939 0.077236 0
1.094103 0.047936 0
1.131449 0.027446 0
1.156505 0.015944 0
1.169041 0.013502 0
1.161832 0.028822 0
1.121972 0.098559 0
1.049436 0.251847 0
1.032380 0.411086 0
1.100123 0.453232 0
1.157703 0.375444 0