# vtk DataFile Version 2.0
generated by CFD-lab course output (written by Tobias Neckel) 
ASCII

DATASET STRUCTURED_GRID
DIMENSIONS  101 21 1 
POINTS 2121 float

0.000000 0.000000 0
0.100000 0.000000 0
0.200000 0.000000 0
0.300000 0.000000 0
0.400000 0.000000 0
0.500000 0.000000 0
0.600000 0.000000 0
0.700000 0.000000 0
0.800000 0.000000 0
0.900000 0.000000 0
1.000000 0.000000 0
1.100000 0.000000 0
1.200000 0.000000 0
1.300000 0.000000 0
1.400000 0.000000 0
1.500000 0.000000 0
1.600000 0.000000 0
1.700000 0.000000 0
1.800000 0.000000 0
1.900000 0.000000 0
2.000000 0.000000 0
2.100000 0.000000 0
2.200000 0.000000 0
2.300000 0.000000 0
2.400000 0.000000 0
2.500000 0.000000 0
2.600000 0.000000 0
2.700000 0.000000 0
2.800000 0.000000 0
2.900000 0.000000 0
3.000000 0.000000 0
3.100000 0.000000 0
3.200000 0.000000 0
3.300000 0.000000 0
3.400000 0.000000 0
3.500000 0.000000 0
3.600000 0.000000 0
3.700000 0.000000 0
3.800000 0.000000 0
3.900000 0.000000 0
4.000000 0.000000 0
4.100000 0.000000 0
4.200000 0.000000 0
4.300000 0.000000 0
4.400000 0.000000 0
4.500000 0.000000 0
4.600000 0.000000 0
4.700000 0.000000 0
4.800000 0.000000 0
4.900000 0.000000 0
5.000000 0.000000 0
5.100000 0.000000 0
5.200000 0.000000 0
5.300000 0.000000 0
5.400000 0.000000 0
5.500000 0.000000 0
5.600000 0.000000 0
5.700000 0.000000 0
5.800000 0.000000 0
5.900000 0.000000 0
6.000000 0.000000 0
6.100000 0.000000 0
6.200000 0.000000 0
6.300000 0.000000 0
6.400000 0.000000 0
6.500000 0.000000 0
6.600000 0.000000 0
6.700000 0.000000 0
6.800000 0.000000 0
6.900000 0.000000 0
7.000000 0.000000 0
7.100000 0.000000 0
7.200000 0.000000 0
7.300000 0.000000 0
7.400000 0.000000 0
7.500000 0.000000 0
7.600000 0.000000 0
7.700000 0.000000 0
7.800000 0.000000 0
7.900000 0.000000 0
8.000000 0.000000 0
8.100000 0.000000 0
8.200000 0.000000 0
8.300000 0.000000 0
8.400000 0.000000 0
8.500000 0.000000 0
8.600000 0.000000 0
8.700000 0.000000 0
8.800000 0.000000 0
8.900000 0.000000 0
9.000000 0.000000 0
9.100000 0.000000 0
9.200000 0.000000 0
9.300000 0.000000 0
9.400000 0.000000 0
9.500000 0.000000 0
9.600000 0.000000 0
9.700000 0.000000 0
9.800000 0.000000 0
9.900000 0.000000 0
10.000000 0.000000 0
0.000000 0.100000 0
0.100000 0.100000 0
0.200000 0.100000 0
0.300000 0.100000 0
0.400000 0.100000 0
0.500000 0.100000 0
0.600000 0.100000 0
0.700000 0.100000 0
0.800000 0.100000 0
0.900000 0.100000 0
1.000000 0.100000 0
1.100000 0.100000 0
1.200000 0.100000 0
1.300000 0.100000 0
1.400000 0.100000 0
1.500000 0.100000 0
1.600000 0.100000 0
1.700000 0.100000 0
1.800000 0.100000 0
1.900000 0.100000 0
2.000000 0.100000 0
2.100000 0.100000 0
2.200000 0.100000 0
2.300000 0.100000 0
2.400000 0.100000 0
2.500000 0.100000 0
2.600000 0.100000 0
2.700000 0.100000 0
2.800000 0.100000 0
2.900000 0.100000 0
3.000000 0.100000 0
3.100000 0.100000 0
3.200000 0.100000 0
3.300000 0.100000 0
3.400000 0.100000 0
3.500000 0.100000 0
3.600000 0.100000 0
3.700000 0.100000 0
3.800000 0.100000 0
3.900000 0.100000 0
4.000000 0.100000 0
4.100000 0.100000 0
4.200000 0.100000 0
4.300000 0.100000 0
4.400000 0.100000 0
4.500000 0.100000 0
4.600000 0.100000 0
4.700000 0.100000 0
4.800000 0.100000 0
4.900000 0.100000 0
5.000000 0.100000 0
5.100000 0.100000 0
5.200000 0.100000 0
5.300000 0.100000 0
5.400000 0.100000 0
5.500000 0.100000 0
5.600000 0.100000 0
5.700000 0.100000 0
5.800000 0.100000 0
5.900000 0.100000 0
6.000000 0.100000 0
6.100000 0.100000 0
6.200000 0.100000 0
6.300000 0.100000 0
6.400000 0.100000 0
6.500000 0.100000 0
6.600000 0.100000 0
6.700000 0.100000 0
6.800000 0.100000 0
6.900000 0.100000 0
7.000000 0.100000 0
7.100000 0.100000 0
7.200000 0.100000 0
7.300000 0.100000 0
7.400000 0.100000 0
7.500000 0.100000 0
7.600000 0.100000 0
7.700000 0.100000 0
7.800000 0.100000 0
7.900000 0.100000 0
8.000000 0.100000 0
8.100000 0.100000 0
8.200000 0.100000 0
8.300000 0.100000 0
8.400000 0.100000 0
8.500000 0.100000 0
8.600000 0.100000 0
8.700000 0.100000 0
8.800000 0.100000 0
8.900000 0.100000 0
9.000000 0.100000 0
9.100000 0.100000 0
9.200000 0.100000 0
9.300000 0.100000 0
9.400000 0.100000 0
9.500000 0.100000 0
9.600000 0.100000 0
9.700000 0.100000 0
9.800000 0.100000 0
9.900000 0.100000 0
10.000000 0.100000 0
0.000000 0.200000 0
0.100000 0.200000 0
0.200000 0.200000 0
0.300000 0.200000 0
0.400000 0.200000 0
0.500000 0.200000 0
0.600000 0.200000 0
0.700000 0.200000 0
0.800000 0.200000 0
0.900000 0.200000 0
1.000000 0.200000 0
1.100000 0.200000 0
1.200000 0.200000 0
1.300000 0.200000 0
1.400000 0.200000 0
1.500000 0.200000 0
1.600000 0.200000 0
1.700000 0.200000 0
1.800000 0.200000 0
1.900000 0.200000 0
2.000000 0.200000 0
2.100000 0.200000 0
2.200000 0.200000 0
2.300000 0.200000 0
2.400000 0.200000 0
2.500000 0.200000 0
2.600000 0.200000 0
2.700000 0.200000 0
2.800000 0.200000 0
2.900000 0.200000 0
3.000000 0.200000 0
3.100000 0.200000 0
3.200000 0.200000 0
3.300000 0.200000 0
3.400000 0.200000 0
3.500000 0.200000 0
3.600000 0.200000 0
3.700000 0.200000 0
3.800000 0.200000 0
3.900000 0.200000 0
4.000000 0.200000 0
4.100000 0.200000 0
4.200000 0.200000 0
4.300000 0.200000 0
4.400000 0.200000 0
4.500000 0.200000 0
4.600000 0.200000 0
4.700000 0.200000 0
4.800000 0.200000 0
4.900000 0.200000 0
5.000000 0.200000 0
5.100000 0.200000 0
5.200000 0.200000 0
5.300000 0.200000 0
5.400000 0.200000 0
5.500000 0.200000 0
5.600000 0.200000 0
5.700000 0.200000 0
5.800000 0.200000 0
5.900000 0.200000 0
6.000000 0.200000 0
6.100000 0.200000 0
6.200000 0.200000 0
6.300000 0.200000 0
6.400000 0.200000 0
6.500000 0.200000 0
6.600000 0.200000 0
6.700000 0.200000 0
6.800000 0.200000 0
6.900000 0.200000 0
7.000000 0.200000 0
7.100000 0.200000 0
7.200000 0.200000 0
7.300000 0.200000 0
7.400000 0.200000 0
7.500000 0.200000 0
7.600000 0.200000 0
7.700000 0.200000 0
7.800000 0.200000 0
7.900000 0.200000 0
8.000000 0.200000 0
8.100000 0.200000 0
8.200000 0.200000 0
8.300000 0.200000 0
8.400000 0.200000 0
8.500000 0.200000 0
8.600000 0.200000 0
8.700000 0.200000 0
8.800000 0.200000 0
8.900000 0.200000 0
9.000000 0.200000 0
9.100000 0.200000 0
9.200000 0.200000 0
9.300000 0.200000 0
9.400000 0.200000 0
9.500000 0.200000 0
9.600000 0.200000 0
9.700000 0.200000 0
9.800000 0.200000 0
9.900000 0.200000 0
10.000000 0.200000 0
0.000000 0.300000 0
0.100000 0.300000 0
0.200000 0.300000 0
0.300000 0.300000 0
0.400000 0.300000 0
0.500000 0.300000 0
0.600000 0.300000 0
0.700000 0.300000 0
0.800000 0.300000 0
0.900000 0.300000 0
1.000000 0.300000 0
1.100000 0.300000 0
1.200000 0.300000 0
1.300000 0.300000 0
1.400000 0.300000 0
1.500000 0.300000 0
1.600000 0.300000 0
1.700000 0.300000 0
1.800000 0.300000 0
1.900000 0.300000 0
2.000000 0.300000 0
2.100000 0.300000 0
2.200000 0.300000 0
2.300000 0.300000 0
2.400000 0.300000 0
2.500000 0.300000 0
2.600000 0.300000 0
2.700000 0.300000 0
2.800000 0.300000 0
2.900000 0.300000 0
3.000000 0.300000 0
3.100000 0.300000 0
3.200000 0.300000 0
3.300000 0.300000 0
3.400000 0.300000 0
3.500000 0.300000 0
3.600000 0.300000 0
3.700000 0.300000 0
3.800000 0.300000 0
3.900000 0.300000 0
4.000000 0.300000 0
4.100000 0.300000 0
4.200000 0.300000 0
4.300000 0.300000 0
4.400000 0.300000 0
4.500000 0.300000 0
4.600000 0.300000 0
4.700000 0.300000 0
4.800000 0.300000 0
4.900000 0.300000 0
5.000000 0.300000 0
5.100000 0.300000 0
5.200000 0.300000 0
5.300000 0.300000 0
5.400000 0.300000 0
5.500000 0.300000 0
5.600000 0.300000 0
5.700000 0.300000 0
5.800000 0.300000 0
5.900000 0.300000 0
6.000000 0.300000 0
6.100000 0.300000 0
6.200000 0.300000 0
6.300000 0.300000 0
6.400000 0.300000 0
6.500000 0.300000 0
6.600000 0.300000 0
6.700000 0.300000 0
6.800000 0.300000 0
6.900000 0.300000 0
7.000000 0.300000 0
7.100000 0.300000 0
7.200000 0.300000 0
7.300000 0.300000 0
7.400000 0.300000 0
7.500000 0.300000 0
7.600000 0.300000 0
7.700000 0.300000 0
7.800000 0.300000 0
7.900000 0.300000 0
8.000000 0.300000 0
8.100000 0.300000 0
8.200000 0.300000 0
8.300000 0.300000 0
8.400000 0.300000 0
8.500000 0.300000 0
8.600000 0.300000 0
8.700000 0.300000 0
8.800000 0.300000 0
8.900000 0.300000 0
9.000000 0.300000 0
9.100000 0.300000 0
9.200000 0.300000 0
9.300000 0.300000 0
9.400000 0.300000 0
9.500000 0.300000 0
9.600000 0.300000 0
9.700000 0.300000 0
9.800000 0.300000 0
9.900000 0.300000 0
10.000000 0.300000 0
0.000000 0.400000 0
0.100000 0.400000 0
0.200000 0.400000 0
0.300000 0.400000 0
0.400000 0.400000 0
0.500000 0.400000 0
0.600000 0.400000 0
0.700000 0.400000 0
0.800000 0.400000 0
0.900000 0.400000 0
1.000000 0.400000 0
1.100000 0.400000 0
1.200000 0.400000 0
1.300000 0.400000 0
1.400000 0.400000 0
1.500000 0.400000 0
1.600000 0.400000 0
1.700000 0.400000 0
1.800000 0.400000 0
1.900000 0.400000 0
2.000000 0.400000 0
2.100000 0.400000 0
2.200000 0.400000 0
2.300000 0.400000 0
2.400000 0.400000 0
2.500000 0.400000 0
2.600000 0.400000 0
2.700000 0.400000 0
2.800000 0.400000 0
2.900000 0.400000 0
3.000000 0.400000 0
3.100000 0.400000 0
3.200000 0.400000 0
3.300000 0.400000 0
3.400000 0.400000 0
3.500000 0.400000 0
3.600000 0.400000 0
3.700000 0.400000 0
3.800000 0.400000 0
3.900000 0.400000 0
4.000000 0.400000 0
4.100000 0.400000 0
4.200000 0.400000 0
4.300000 0.400000 0
4.400000 0.400000 0
4.500000 0.400000 0
4.600000 0.400000 0
4.700000 0.400000 0
4.800000 0.400000 0
4.900000 0.400000 0
5.000000 0.400000 0
5.100000 0.400000 0
5.200000 0.400000 0
5.300000 0.400000 0
5.400000 0.400000 0
5.500000 0.400000 0
5.600000 0.400000 0
5.700000 0.400000 0
5.800000 0.400000 0
5.900000 0.400000 0
6.000000 0.400000 0
6.100000 0.400000 0
6.200000 0.400000 0
6.300000 0.400000 0
6.400000 0.400000 0
6.500000 0.400000 0
6.600000 0.400000 0
6.700000 0.400000 0
6.800000 0.400000 0
6.900000 0.400000 0
7.000000 0.400000 0
7.100000 0.400000 0
7.200000 0.400000 0
7.300000 0.400000 0
7.400000 0.400000 0
7.500000 0.400000 0
7.600000 0.400000 0
7.700000 0.400000 0
7.800000 0.400000 0
7.900000 0.400000 0
8.000000 0.400000 0
8.100000 0.400000 0
8.200000 0.400000 0
8.300000 0.400000 0
8.400000 0.400000 0
8.500000 0.400000 0
8.600000 0.400000 0
[...]
POINT_DATA 2121 

VECTORS velocity float
0.500000 0.000000 0
0.000002 0.000000 0
-0.000007 0.000000 0
-0.000038 0.000000 0
-0.000108 0.000000 0
-0.000240 0.000000 0
-0.000450 0.000000 0
-0.000750 0.000000 0
-0.001122 0.000000 0
-0.001546 0.000000 0
-0.001991 0.000000 0
-0.002407 0.000000 0
-0.002705 0.000000 0
-0.002803 0.000000 0
-0.002525 0.000000 0
-0.001700 0.000000 0
-0.000449 0.000000 0
0.000963 0.000000 0
0.002253 0.000000 0
0.003275 0.000000 0
0.003994 0.000000 0
0.004402 0.000000 0
0.004505 0.000000 0
0.004352 0.000000 0
0.004061 0.000000 0
0.003507 0.000000 0
0.002596 0.000000 0
0.001392 0.000000 0
0.000005 0.000000 0
-0.001481 0.000000 0
-0.002631 0.000000 0
-0.002644 0.000000 0
-0.001648 0.000000 0
-0.000248 0.000000 0
0.001062 0.000000 0
0.002132 0.000000 0
0.002920 0.000000 0
0.002527 0.000000 0
-0.001597 0.000000 0
0.013272 0.000000 0
0.023687 0.000000 0
0.011306 0.000000 0
-0.005184 0.000000 0
-0.005690 0.000000 0
0.000183 0.000000 0
0.002158 0.000000 0
0.004036 0.000000 0
0.004606 0.000000 0
0.004637 0.000000 0
0.004297 0.000000 0
0.003419 0.000000 0
0.002290 0.000000 0
0.001167 0.000000 0
-0.000156 0.000000 0
-0.001992 0.000000 0
-0.004271 0.000000 0
-0.006480 0.000000 0
-0.008214 0.000000 0
-0.009516 0.000000 0
-0.010504 0.000000 0
-0.011100 0.000000 0
-0.010861 0.000000 0
-0.009596 0.000000 0
-0.008044 0.000000 0
-0.009887 0.000000 0
-0.010154 0.000000 0
-0.009590 0.000000 0
-0.008791 0.000000 0
-0.007301 0.000000 0
-0.005519 0.000000 0
-0.003563 0.000000 0
-0.001262 0.000000 0
0.001145 0.000000 0
0.003460 0.000000 0
0.006197 0.000000 0
0.010370 0.000000 0
0.016463 0.000000 0
0.024362 0.000000 0
0.011837 0.000000 0
0.002714 0.000000 0
-0.002084 0.000000 0
-0.001789 0.000000 0
-0.001033 0.000000 0
-0.001183 0.000000 0
-0.000921 0.000000 0
-0.000532 0.000000 0
-0.000324 0.000000 0
-0.000286 0.000000 0
-0.000339 0.000000 0
-0.000429 0.000000 0
-0.000531 0.000000 0
-0.000639 0.000000 0
-0.000749 0.000000 0
-0.000859 0.000000 0
-0.000968 0.000000 0
-0.001064 0.000000 0
-0.001142 0.000000 0
-0.001206 0.000000 0
-0.001235 0.000000 0
-0.001257 0.000000 0
-0.001248 0.000000 0
1.000000 -0.002833 0
1.006235 -0.008965 0
1.019213 -0.015934 0
1.039696 -0.023540 0
1.068391 -0.031390 0
1.105464 -0.038655 0
1.149907 -0.044137 0
1.199357 -0.046422 0
1.248669 -0.045185 0
1.294150 -0.041882 0
1.334978 -0.038314 0
1.372186 -0.035472 0
1.407361 -0.033322 0
1.441381 -0.031026 0
1.472626 -0.025661 0
1.497083 -0.014495 0
1.508410 0.000946 0
1.501611 0.018038 0
1.475352 0.034123 0
1.433600 0.046600 0
1.380814 0.054525 0
1.322463 0.057553 0
1.264286 0.056069 0
1.211023 0.051464 0
1.164028 0.045219 0
1.122805 0.037312 0
1.089375 0.027021 0
1.066741 0.014410 0
1.057173 -0.000058 0
1.063035 -0.015587 0
1.087848 -0.028304 0
1.126099 -0.031661 0
1.161320 -0.023521 0
1.181280 -0.008110 0
1.182379 0.009217 0
1.165787 0.025393 0
1.134426 0.037654 0
1.093261 0.032147 0
1.047834 0.021691 0
0.973788 0.168376 0
0.833440 0.316995 0
0.709658 0.167806 0
0.629260 -0.071952 0
0.523463 -0.100997 0
0.449994 -0.021475 0
0.484616 0.000693 0
0.494097 0.013628 0
0.434181 0.031930 0
0.373589 0.046110 0
0.328503 0.051549 0
0.296933 0.042406 0
0.281991 0.024895 0
0.278663 0.007337 0
0.283270 -0.010194 0
0.295067 -0.031185 0
0.322250 -0.053965 0
0.369186 -0.071549 0
0.430819 -0.079382 0
0.499319 -0.080076 0
0.572967 -0.080135 0
0.651654 -0.080769 0
0.738413 -0.079733 0
0.832834 -0.073230 0
0.929955 -0.068941 0
1.022010 -0.076137 0
1.103882 -0.080369 0
1.178996 -0.074880 0
1.248035 -0.065821 0
1.307662 -0.052893 0
1.351623 -0.037146 0
1.380595 -0.019847 0
1.394590 -0.000692 0
1.390670 0.019511 0
1.365955 0.040370 0
1.318532 0.065914 0
1.246750 0.103127 0
1.151241 0.158700 0
1.043408 0.183690 0
0.954661 0.123141 0
0.903940 0.038227 0
0.877369 -0.007895 0
0.849086 -0.016060 0
0.823504 -0.008544 0
0.815871 -0.006973 0
0.821695 -0.005859 0
0.824339 -0.002643 0
0.824036 -0.000369 0
0.822739 0.000488 0
0.821258 0.000525 0
0.819943 0.000249 0
0.819101 -0.000086 0
0.819017 -0.000421 0
0.819774 -0.000724 0
0.821244 -0.001002 0
0.823177 -0.001230 0
0.825142 -0.001385 0
0.827042 -0.001337 0
0.828827 -0.001408 0
0.830444 -0.001050 0
0.832482 -0.001507 0
0.835122 -0.002508 0
1.000000 -0.006232 0
1.006352 -0.019209 0
1.019495 -0.033455 0
1.040531 -0.049170 0
1.070834 -0.065760 0
1.111346 -0.081509 0
1.161399 -0.093890 0
1.220155 -0.098761 0
1.276943 -0.094793 0
1.325844 -0.086312 0
1.367168 -0.078043 0
1.404081 -0.072390 0
1.439495 -0.069205 0
1.474565 -0.065278 0
1.509652 -0.055716 0
1.542306 -0.035799 0
1.562293 -0.004544 0
1.560308 0.033042 0
1.534512 0.067995 0
1.488549 0.094524 0
1.429747 0.111125 0
1.364006 0.116518 0
1.299132 0.111431 0
1.244187 0.100251 0
1.198172 0.088213 0
1.154052 0.074649 0
1.115801 0.056060 0
1.089237 0.032199 0
1.075648 0.003704 0
1.075780 -0.030678 0
1.104252 -0.063066 0
1.159202 -0.073475 0
1.209384 -0.055185 0
1.237460 -0.021064 0
1.242895 0.015486 0
1.228741 0.047944 0
1.197831 0.072518 0
1.153085 0.086581 0
1.085425 0.119460 0
0.997186 0.214382 0
1.029230 0.264117 0
1.065698 0.204165 0
0.963593 0.186180 0
0.769234 0.179251 0
0.654374 0.038830 0
0.510593 -0.044119 0
0.341709 0.050421 0
0.249478 0.120494 0
0.233308 0.105665 0
0.241674 0.076643 0
0.251997 0.046500 0
0.271496 0.018260 0
0.296126 -0.001287 0
0.314570 -0.016412 0
0.310904 -0.038986 0
0.292127 -0.074124 0
0.283539 -0.108572 0
0.295067 -0.130134 0
0.323760 -0.142148 0
0.367128 -0.152335 0
0.423384 -0.165445 0
0.494804 -0.181178 0
0.582957 -0.191541 0
0.691087 -0.189175 0
0.806030 -0.173926 0
0.913934 -0.156986 0
1.010732 -0.144153 0
1.086121 -0.128667 0
1.140567 -0.103589 0
1.178823 -0.072936 0
1.206037 -0.042971 0
1.226249 -0.010079 0
1.235601 0.028630 0
1.228436 0.072133 0
1.199592 0.119200 0
1.152997 0.167285 0
1.109034 0.203334 0
1.101388 0.196573 0
1.106703 0.139462 0
1.092970 0.077284 0
1.073288 0.054847 0
1.038087 0.053857 0
0.999829 0.033207 0
0.959812 0.001802 0
0.917441 -0.008476 0
0.890934 -0.002347 0
0.877982 0.001593 0
0.871659 0.002772 0
0.868115 0.002791 0
0.865971 0.002152 0
0.864883 0.000921 0
0.864765 -0.000677 0
0.865481 -0.002231 0
0.866936 -0.003407 0
0.868930 -0.003901 0
0.871507 -0.003868 0
0.874546 -0.003688 0
0.878116 -0.003406 0
0.881696 -0.003659 0
0.885875 -0.004680 0
0.888791 -0.005271 0
1.000000 -0.009183 0
1.005022 -0.028456 0
1.016438 -0.050108 0
1.036103 -0.074875 0
1.066827 -0.102201 0
1.111014 -0.129219 0
1.168260 -0.152948 0
1.247887 -0.161966 0
1.318660 -0.150877 0
1.370791 -0.132110 0
1.408796 -0.116553 0
1.440550 -0.107804 0
1.471290 -0.103813 0
1.502714 -0.101189 0
1.540213 -0.093408 0
1.587470 -0.067142 0
1.622516 -0.017062 0
1.629229 0.045814 0
1.603636 0.105877 0
1.547530 0.151361 0
1.472808 0.179066 0
1.394692 0.188166 0
1.322555 0.175887 0
1.263462 0.152424 0
1.209567 0.135354 0
1.148067 0.119683 0
1.101271 0.091837 0
1.075290 0.054563 0
1.060882 0.013398 0
1.041133 -0.044193 0
1.054692 -0.111727 0
1.121658 -0.136794 0
1.184473 -0.101781 0
1.221642 -0.041625 0
1.238485 0.017932 0
1.240601 0.070454 0
1.226082 0.113306 0
1.190443 0.144548 0
1.135343 0.177585 0
1.088215 0.224566 0
1.091898 0.248478 0
1.078043 0.233437 0
1.027961 0.224507 0
1.007598 0.208216 0
0.951571 0.237160 0
0.761155 0.313354 0
0.600792 0.274738 0
0.538017 0.140326 0
0.492594 0.053910 0
0.452360 0.032856 0
0.433266 0.012582 0
0.428516 -0.019237 0
0.439319 -0.035739 0
0.466534 -0.024973 0
0.482301 -0.008743 0
0.451232 -0.026600 0
0.385532 -0.074489 0
0.325730 -0.119602 0
0.298806 -0.152136 0
0.302914 -0.179758 0
0.329480 -0.208444 0
0.366546 -0.239305 0
0.411084 -0.269513 0
0.467365 -0.292014 0
0.543012 -0.298983 0
0.638887 -0.285072 0
0.740770 -0.247068 0
0.833770 -0.195657 0
0.908998 -0.145596 0
0.966658 -0.102618 0
1.004850 -0.067274 0
1.024384 -0.030258 0
1.030332 0.017321 0
1.027909 0.076376 0
1.021754 0.141350 0
1.020507 0.193682 0
1.032167 0.210305 0
1.059116 0.186017 0
1.076729 0.131557 0
1.057453 0.071640 0
1.015209 0.046985 0
0.983865 0.057397 0
0.958251 0.069729 0
0.924582 0.075413 0
0.886903 0.063017 0
0.868736 0.036814 0
0.864087 0.018905 0
0.862071 0.010353 0
0.859794 0.006212 0
0.857449 0.003480 0
0.855715 0.001120 0
0.854951 -0.001019 0
0.855302 -0.002896 0
0.856851 -0.004451 0
0.859612 -0.005800 0
0.863624 -0.007001 0
0.868457 -0.007946 0
0.873776 -0.008558 0
0.879004 -0.008809 0
0.883643 -0.008601 0
0.886799 -0.008312 0
1.000000 -0.011251 0
1.001761 -0.035640 0
1.009920 -0.064531 0
1.026032 -0.099555 0
1.056048 -0.140670 0
1.103180 -0.182942 0
1.168091 -0.230762 0
1.299592 -0.249163 0
1.389256 -0.217700 0
1.436025 -0.176450 0
1.457742 -0.147805 0
1.470994 -0.134890 0
1.486529 -0.131374 0
1.503027 -0.134206 0
1.524662 -0.140478 0
1.591136 -0.118108 0
1.651313 -0.046308 0
1.679178 0.051917 0
1.674246 0.149691 0
1.628275 0.225350 0
1.537631 0.263961 0
1.423050 0.266769 0
1.284423 0.242661 0
1.254274 0.213240 0
1.295106 0.203608 0
1.265499 0.182945 0
1.203145 0.128837 0
1.158039 0.072588 0
1.159922 0.037860 0
1.106776 -0.024488 0
0.973128 -0.143592 0
0.888495 -0.203257 0
0.903972 -0.155171 0
0.977603 -0.075080 0
1.062762 -0.003476 0
1.120329 0.060344 0
1.144559 0.122670 0
1.142950 0.177316 0
1.132124 0.221685 0
1.121792 0.257822 0
1.119585 0.274283 0
1.104783 0.268097 0
1.074528 0.256619 0
1.046879 0.255635 0
0.998722 0.285269 0
0.995569 0.306656 0
1.024509 0.273554 0
0.993077 0.228689 0
0.906199 0.191319 0
0.831615 0.135967 0
0.742066 0.070341 0
0.634807 0.012205 0
0.548781 -0.039307 0
0.506204 -0.059395 0
0.501509 -0.023685 0
0.481861 0.022646 0
0.423141 0.016930 0
0.355080 -0.043408 0
0.315567 -0.119331 0
0.316995 -0.183008 0
0.351239 -0.229076 0
0.395718 -0.262781 0
0.432491 -0.292360 0
0.454470 -0.321103 0
0.467865 -0.345448 0
0.484801 -0.354744 0
0.517808 -0.339038 0
0.573023 -0.296897 0
0.640433 -0.236479 0
0.706481 -0.168790 0
0.759771 -0.100699 0
0.794729 -0.035563 0
0.817111 0.025102 0
0.835780 0.080709 0
0.860671 0.126600 0
0.897082 0.156869 0
0.937593 0.164722 0
0.965835 0.152008 0
0.971108 0.141121 0
0.947610 0.138802 0
0.909659 0.128433 0
0.890059 0.110813 0
0.892334 0.092488 0
0.904175 0.073147 0
0.918868 0.047370 0
0.913639 0.020468 0
0.894501 0.008257 0
0.874936 0.007064 0
0.859785 0.007413 0
0.849678 0.006230 0
0.843949 0.003418 0
0.841867 -0.000263 0
0.842824 -0.004131 0
0.846285 -0.007717 0
0.851651 -0.010673 0
0.858189 -0.012712 0
0.865164 -0.013839 0
0.871986 -0.013952 0
0.877975 -0.013524 0
0.883245 -0.012474 0
0.886685 -0.011538 0
1.000000 -0.010939 0
1.000302 -0.038369 0
1.004340 -0.074374 0
1.006940 -0.121000 0
1.033663 -0.179348 0
1.076588 -0.241261 0
1.154828 -0.349358 0
1.395765 -0.383131 0
1.467079 -0.287312 0
1.466523 -0.200599 0
1.441562 -0.151528 0
1.410396 -0.136596 0
1.388974 -0.135851 0
1.370328 -0.139328 0
1.316076 -0.181523 0
1.396594 -0.193798 0
1.478425 -0.105109 0
1.536150 0.022878 0
1.586077 0.156778 0
1.611160 0.287974 0
1.575105 0.384288 0
1.468834 0.441374 0
1.318974 0.344663 0
1.105232 0.141741 0
0.886050 0.124129 0
0.979312 0.211644 0
1.069918 0.199297 0
0.989277 0.097786 0
0.813526 0.064661 0
0.643145 0.142601 0
0.479161 0.106553 0
0.362200 -0.067639 0
0.362775 -0.190891 0
0.470953 -0.200418 0
0.633987 -0.124796 0
0.787156 -0.011346 0
0.907599 0.090680 0
0.993196 0.156980 0
1.043558 0.198739 0
1.072532 0.237100 0
1.099503 0.265482 0
1.118167 0.278489 0
1.120072 0.282405 0
1.109403 0.284018 0
1.094459 0.288466 0
1.099739 0.287561 0
1.102372 0.277225 0
1.097411 0.258632 0
1.096614 0.215369 0
1.026628 0.196986 0
0.884427 0.209388 0
0.761839 0.174046 0
0.628374 0.092863 0
0.491211 0.022297 0
0.393717 0.015600 0
0.344124 0.051768 0
0.318967 0.052293 0
0.305308 -0.012028 0
0.308602 -0.114050 0
0.334647 -0.215429 0
0.388432 -0.287167 0
0.454299 -0.320557 0
0.516853 -0.328266 0
0.560712 -0.327389 0
0.575879 -0.329314 0
0.564074 -0.335015 0
0.540262 -0.335291 0
0.523528 -0.318283 0
0.525532 -0.279057 0
0.546670 -0.221958 0
0.580998 -0.155524 0
0.622382 -0.087600 0
0.666297 -0.023732 0
0.710848 0.032813 0
0.755910 0.080045 0
0.798887 0.116757 0
0.837237 0.141549 0
0.864933 0.152500 0
0.883237 0.149779 0
0.905661 0.133086 0
0.932347 0.104534 0
0.951957 0.074721 0
0.961744 0.055611 0
0.959157 0.048878 0
0.946312 0.053553 0
0.918168 0.061180 0
0.883964 0.057607 0
0.855999 0.045069 0
0.837325 0.031470 0
0.826959 0.019316 0
0.823002 0.008932 0
0.823812 0.000107 0
0.828132 -0.007312 0
0.835011 -0.013276 0
0.843505 -0.017703 0
0.852959 -0.020512 0
0.862406 -0.021741 0
0.871367 -0.021368 0
0.878958 -0.020067 0
0.885101 -0.017309 0
0.888855 -0.015135 0
1.000000 -0.011548 0
0.998937 -0.039972 0
1.000903 -0.071165 0
0.988923 -0.128875 0
0.999841 -0.210315 0
1.009775 -0.304106 0
1.117631 -0.549938 0
1.440073 -0.561414 0
1.342343 -0.288460 0
1.224770 -0.150937 0
1.147450 -0.091683 0
1.011222 -0.082307 0
0.878363 -0.091312 0
0.924903 -0.061313 0
0.630511 -0.166749 0
0.800683 -0.280461 0
0.923963 -0.185868 0
1.006252 -0.055737 0
1.192981 0.074679 0
1.339897 0.236320 0
1.387987 0.406286 0
1.389837 0.522899 0
1.348603 0.606263 0
1.081699 0.646164 0
0.707432 0.329528 0
0.499384 -0.000922 0
0.535928 0.118872 0
0.454613 0.328980 0
0.199734 0.383993 0
0.027750 0.309877 0
0.002416 0.137352 0
0.005724 -0.086872 0
0.018971 -0.263926 0
0.083872 -0.346293 0
0.218433 -0.319680 0
0.406556 -0.213271 0
0.602371 -0.083373 0
0.771983 0.041354 0
0.896697 0.142345 0
0.977686 0.201873 0
1.029279 0.228643 0
1.066937 0.247523 0
1.098728 0.265379 0
1.119059 0.281244 0
1.125922 0.294928 0
1.124490 0.298738 0
1.126513 0.275879 0
1.156607 0.234443 0
1.160280 0.262099 0
1.009860 0.348152 0
0.822479 0.335128 0
0.665229 0.268256 0
0.565985 0.231319 0
0.502430 0.175263 0
0.434092 0.123402 0
0.383177 0.097396 0
0.374219 0.055746 0
0.400207 -0.033042 0
0.449332 -0.148669 0
0.499605 -0.262838 0
0.544134 -0.348727 0
0.584867 -0.391202 0
0.621870 -0.398773 0
0.654011 -0.380130 0
0.677720 -0.348811 0
0.683533 -0.319128 0
0.667552 -0.298492 0
0.638568 -0.282167 0
0.609719 -0.259623 0
0.592414 -0.224257 0
0.591341 -0.176413 0
0.605601 -0.120865 0
0.631532 -0.063366 0
0.665283 -0.008907 0
0.704429 0.038558 0
0.747814 0.075539 0
0.794960 0.098674 0
0.843386 0.106005 0
0.887252 0.100391 0
0.919519 0.089690 0
0.932078 0.082134 0
0.921997 0.081414 0
0.895114 0.085286 0
0.862589 0.088579 0
0.832310 0.088359 0
0.813404 0.082816 0
0.804069 0.070426 0
0.798548 0.053703 0
0.796032 0.036453 0
0.796914 0.020554 0
0.801377 0.006566 0
0.809005 -0.005392 0
0.818967 -0.015327 0
0.830318 -0.023088 0
0.842201 -0.028619 0
0.854138 -0.031610 0
0.865170 -0.032244 0
0.875613 -0.030502 0
0.883720 -0.027255 0
0.890855 -0.022368 0
0.894940 -0.018969 0
1.000000 -0.009870 0
0.998551 -0.039263 0
0.990321 -0.064356 0
0.977810 -0.119935 0
0.965104 -0.200196 0
0.909433 -0.359048 0
0.998342 -0.779656 0
0.711121 -0.535832 0
0.002486 0.000000 0
0.003777 0.000000 0
0.446502 0.067725 0
0.402741 0.132485 0
0.344157 -0.049537 0
0.229447 0.108518 0
0.286013 -0.057306 0
0.203069 -0.487254 0
0.089929 -0.310682 0
0.120162 -0.246142 0
0.463309 -0.176869 0
0.860851 0.092966 0
1.063032 0.334348 0
1.159092 0.480757 0
1.154094 0.652801 0
1.109220 0.782911 0
1.035190 0.706444 0
0.686422 0.383149 0
0.401691 0.244069 0
0.226730 0.433981 0
0.113933 0.491525 0
0.093903 0.339918 0
0.120029 0.128579 0
0.120366 -0.084194 0
0.094338 -0.269040 0
0.076850 -0.399880 0
0.104976 -0.447482 0
0.209408 -0.395287 0
0.367984 -0.274748 0
0.539770 -0.137349 0
0.708086 -0.006968 0
0.855445 0.104515 0
0.959102 0.176226 0
1.017952 0.209035 0
1.051620 0.230280 0
1.079307 0.256820 0
1.100721 0.283031 0
1.118637 0.286967 0
1.139088 0.245105 0
1.141112 0.224862 0
1.061815 0.362113 0
0.948238 0.534785 0
0.853244 0.554017 0
0.741183 0.430539 0
0.687028 0.255662 0
0.672757 0.154190 0
0.659626 0.134852 0
0.660344 0.111642 0
0.694660 0.035264 0
0.757957 -0.087140 0
0.820070 -0.213447 0
0.871646 -0.310230 0
0.903078 -0.372429 0
0.920467 -0.398292 0
0.917864 -0.397410 0
0.891539 -0.383240 0
0.853715 -0.358837 0
0.822013 -0.324848 0
0.802175 -0.290328 0
0.787722 -0.260451 0
0.769512 -0.232904 0
0.749515 -0.203583 0
0.734432 -0.168713 0
0.729847 -0.127793 0
0.737661 -0.083416 0
0.758032 -0.040087 0
0.788653 -0.002489 0
0.824224 0.026224 0
0.857184 0.045975 0
0.880489 0.060205 0
0.888879 0.073644 0
0.881136 0.088258 0
0.860895 0.102054 0
0.835214 0.111684 0
0.810962 0.115019 0
0.792089 0.111681 0
0.779369 0.102737 0
0.772998 0.089421 0
0.771297 0.072464 0
0.772372 0.053108 0
0.776088 0.033105 0
0.782919 0.013972 0
0.792955 -0.003157 0
0.805740 -0.017480 0
0.820355 -0.028623 0
0.835491 -0.036507 0
0.850236 -0.041521 0
0.863792 -0.043478 0
0.876056 -0.043213 0
0.887403 -0.039915 0
0.896856 -0.035306 0
0.906754 -0.028526 0
0.911305 -0.023222 0
1.000000 -0.010092 0
1.002396 -0.030284 0
0.973226 -0.050419 0
0.976167 -0.103655 0
0.904667 -0.141934 0
0.867759 -0.337340 0
0.667683 -0.423634 0
0.000000 0.001159 0
-0.589244 0.155959 0
-0.490893 0.000000 0
0.000000 0.000000 0
0.061770 0.014078 0
0.121937 0.081977 0
-0.104165 -0.003174 0
0.133045 -0.140375 0
-0.369978 -0.084380 0
-0.540358 -0.102964 0
-0.517087 -0.429119 0
-0.218721 -0.666012 0
0.300458 -0.363405 0
0.683661 0.108045 0
0.889226 0.431837 0
0.993397 0.656136 0
1.068468 0.765069 0
1.103697 0.752327 0
0.976584 0.632579 0
0.635861 0.578565 0
0.387972 0.616738 0
0.336081 0.516822 0
0.345066 0.303781 0
0.327351 0.110888 0
0.301155 -0.061182 0
0.286328 -0.220411 0
0.270787 -0.356932 0
0.247232 -0.452240 0
0.253325 -0.476282 0
0.322514 -0.413736 0
0.442151 -0.298751 0
0.587485 -0.173334 0
0.736598 -0.049146 0
0.865966 0.066132 0
0.955275 0.155002 0
1.003724 0.204021 0
1.029257 0.232140 0
1.053963 0.255595 0
1.083211 0.260368 0
1.095482 0.253400 0
1.051549 0.311713 0
0.972030 0.454970 0
0.967926 0.556721 0
1.001352 0.542182 0
1.033844 0.434471 0
1.028493 0.299745 0
0.996278 0.202665 0
0.989379 0.135816 0
1.027781 0.062363 0
1.092037 -0.041867 0
1.155956 -0.158452 0
1.194527 -0.262357 0
1.212855 -0.345845 0
1.219519 -0.397549 0
1.229029 -0.405988 0
1.239218 -0.369845 0
1.212841 -0.315981 0
1.138611 -0.279286 0
1.046079 -0.267590 0
0.969971 -0.264203 0
0.924313 -0.249506 0
0.915632 -0.221417 0
0.912341 -0.189179 0
0.906099 -0.156747 0
0.904288 -0.124097 0
0.904014 -0.091554 0
0.902890 -0.059901 0
0.901613 -0.027637 0
0.899606 0.007006 0
0.891523 0.042407 0
0.875632 0.074308 0
0.853719 0.099742 0
0.830213 0.117673 0
0.809404 0.128055 0
0.793204 0.131346 0
0.781432 0.128411 0
0.773035 0.120171 0
0.766997 0.107449 0
0.763190 0.090888 0
0.761795 0.071054 0
0.763116 0.048914 0
0.767721 0.025907 0
0.775962 0.003689 0
0.787758 -0.016252 0
0.802717 -0.032789 0
0.820237 -0.045075 0
0.839390 -0.052965 0
0.859205 -0.056917 0
0.878369 -0.057427 0
0.896565 -0.055851 0
0.911747 -0.051299 0
0.925479 -0.046602 0
0.935977 -0.036812 0
0.940600 -0.027964 0
1.000000 -0.012258 0
0.989304 -0.012479 0
0.974185 -0.038122 0
0.954245 -0.051372 0
0.880512 -0.091784 0
0.844205 -0.122060 0
0.494205 0.019342 0
0.382411 0.063088 0
0.000000 0.000000 0
0.000000 0.000000 0
0.000000 0.000000 0
0.000000 0.000000 0
0.009487 0.111803 0
0.064671 0.097407 0
-0.376240 0.208503 0
-0.463326 0.186146 0
-0.657452 -0.163575 0
-0.491477 -0.567780 0
-0.453112 -0.994415 0
-0.281440 -0.809416 0
0.271906 -0.254419 0
0.630043 0.171022 0
0.875345 0.473560 0
1.011541 0.672613 0
1.036731 0.798329 0
0.959854 0.850986 0
0.762352 0.832682 0
0.627532 0.733763 0
0.572776 0.534433 0
0.474370 0.348650 0
0.361498 0.172489 0
0.312659 -0.043172 0
0.322009 -0.238672 0
0.361892 -0.360786 0
0.395586 -0.430022 0
0.408573 -0.470571 0
0.429582 -0.463577 0
0.488844 -0.402322 0
0.579509 -0.301418 0
0.683359 -0.173969 0
0.785501 -0.042455 0
0.876069 0.071274 0
0.943368 0.156295 0
0.983568 0.206578 0
1.018229 0.229073 0
1.050502 0.245445 0
1.060085 0.276765 0
1.039948 0.348312 0
1.043750 0.445734 0
1.100617 0.505461 0
1.170387 0.488098 0
1.228625 0.403397 0
1.253766 0.293227 0
1.264289 0.193304 0
1.285233 0.103350 0
1.322324 0.008984 0
1.357610 -0.092910 0
1.364064 -0.189629 0
1.338673 -0.270345 0
1.284996 -0.335222 0
1.217471 -0.388604 0
1.165780 -0.417991 0