# vtk DataFile Version 2.0
generated by CFD-lab course output (written by Tobias Neckel) 
ASCII

DATASET STRUCTURED_GRID
DIMENSIONS  101 21 1 
POINTS 2121 float

0.000000 0.000000 0
0.100000 0.000000 0
0.200000 0.000000 0
0.300000 0.000000 0
0.400000 0.000000 0
0.500000 0.000000 0
0.600000 0.000000 0
0.700000 0.000000 0
0.800000 0.000000 0
0.900000 0.000000 0
1.000000 0.000000 0
1.100000 0.000000 0
1.200000 0.000000 0
1.300000 0.000000 0
1.400000 0.000000 0
1.500000 0.000000 0
1.600000 0.000000 0
1.700000 0.000000 0
1.800000 0.000000 0
1.900000 0.000000 0
2.000000 0.000000 0
2.100000 0.000000 0
2.200000 0.000000 0
2.300000 0.000000 0
2.400000 0.000000 0
2.500000 0.000000 0
2.600000 0.000000 0
2.700000 0.000000 0
2.800000 0.000000 0
2.900000 0.000000 0
3.000000 0.000000 0
3.100000 0.000000 0
3.200000 0.000000 0
3.300000 0.000000 0
3.400000 0.000000 0
3.500000 0.000000 0
3.600000 0.000000 0
3.700000 0.000000 0
3.800000 0.000000 0
3.900000 0.000000 0
4.000000 0.000000 0
4.100000 0.000000 0
4.200000 0.000000 0
4.300000 0.000000 0
4.400000 0.000000 0
4.500000 0.000000 0
4.600000 0.000000 0
4.700000 0.000000 0
4.800000 0.000000 0
4.900000 0.000000 0
5.000000 0.000000 0
5.100000 0.000000 0
5.200000 0.000000 0
5.300000 0.000000 0
5.400000 0.000000 0
5.500000 0.000000 0
5.600000 0.000000 0
5.700000 0.000000 0
5.800000 0.000000 0
5.900000 0.000000 0
6.000000 0.000000 0
6.100000 0.000000 0
6.200000 0.000000 0
6.300000 0.000000 0
6.400000 0.000000 0
6.500000 0.000000 0
6.600000 0.000000 0
6.700000 0.000000 0
6.800000 0.000000 0
6.900000 0.000000 0
7.000000 0.000000 0
7.100000 0.000000 0
7.200000 0.000000 0
7.300000 0.000000 0
7.400000 0.000000 0
7.500000 0.000000 0
7.600000 0.000000 0
7.700000 0.000000 0
7.800000 0.000000 0
7.900000 0.000000 0
8.000000 0.000000 0
8.100000 0.000000 0
8.200000 0.000000 0
8.300000 0.000000 0
8.400000 0.000000 0
8.500000 0.000000 0
8.600000 0.000000 0
8.700000 0.000000 0
8.800000 0.000000 0
8.900000 0.000000 0
9.000000 0.000000 0
9.100000 0.000000 0
9.200000 0.000000 0
9.300000 0.000000 0
9.400000 0.000000 0
9.500000 0.000000 0
9.600000 0.000000 0
9.700000 0.000000 0
9.800000 0.000000 0
9.900000 0.000000 0
10.000000 0.000000 0
0.000000 0.100000 0
0.100000 0.100000 0
0.200000 0.100000 0
0.300000 0.100000 0
0.400000 0.100000 0
0.500000 0.100000 0
0.600000 0.100000 0
0.700000 0.100000 0
0.800000 0.100000 0
0.900000 0.100000 0
1.000000 0.100000 0
1.100000 0.100000 0
1.200000 0.100000 0
1.300000 0.100000 0
1.400000 0.100000 0
1.500000 0.100000 0
1.600000 0.100000 0
1.700000 0.100000 0
1.800000 0.100000 0
1.900000 0.100000 0
2.000000 0.100000 0
2.100000 0.100000 0
2.200000 0.100000 0
2.300000 0.100000 0
2.400000 0.100000 0
2.500000 0.100000 0
2.600000 0.100000 0
2.700000 0.100000 0
2.800000 0.100000 0
2.900000 0.100000 0
3.000000 0.100000 0
3.100000 0.100000 0
3.200000 0.100000 0
3.300000 0.100000 0
3.400000 0.100000 0
3.500000 0.100000 0
3.600000 0.100000 0
3.700000 0.100000 0
3.800000 0.100000 0
3.900000 0.100000 0
4.000000 0.100000 0
4.100000 0.100000 0
4.200000 0.100000 0
4.300000 0.100000 0
4.400000 0.100000 0
4.500000 0.100000 0
4.600000 0.100000 0
4.700000 0.100000 0
4.800000 0.100000 0
4.900000 0.100000 0
5.000000 0.100000 0
5.100000 0.100000 0
5.200000 0.100000 0
5.300000 0.100000 0
5.400000 0.100000 0
5.500000 0.100000 0
5.600000 0.100000 0
5.700000 0.100000 0
5.800000 0.100000 0
5.900000 0.100000 0
6.000000 0.100000 0
6.100000 0.100000 0
6.200000 0.100000 0
6.300000 0.100000 0
6.400000 0.100000 0
6.500000 0.100000 0
6.600000 0.100000 0
6.700000 0.100000 0
6.800000 0.100000 0
6.900000 0.100000 0
7.000000 0.100000 0
7.100000 0.100000 0
7.200000 0.100000 0
7.300000 0.100000 0
7.400000 0.100000 0
7.500000 0.100000 0
7.600000 0.100000 0
7.700000 0.100000 0
7.800000 0.100000 0
7.900000 0.100000 0
8.000000 0.100000 0
8.100000 0.100000 0
8.200000 0.100000 0
8.300000 0.100000 0
8.400000 0.100000 0
8.500000 0.100000 0
8.600000 0.100000 0
8.700000 0.100000 0
8.800000 0.100000 0
8.900000 0.100000 0
9.000000 0.100000 0
9.100000 0.100000 0
9.200000 0.100000 0
9.300000 0.100000 0
9.400000 0.100000 0
9.500000 0.100000 0
9.600000 0.100000 0
9.700000 0.100000 0
9.800000 0.100000 0
9.900000 0.100000 0
10.000000 0.100000 0
0.000000 0.200000 0
0.100000 0.200000 0
0.200000 0.200000 0
0.300000 0.200000 0
0.400000 0.200000 0
0.500000 0.200000 0
0.600000 0.200000 0
0.700000 0.200000 0
0.800000 0.200000 0
0.900000 0.200000 0
1.000000 0.200000 0
1.100000 0.200000 0
1.200000 0.200000 0
1.300000 0.200000 0
1.400000 0.200000 0
1.500000 0.200000 0
1.600000 0.200000 0
1.700000 0.200000 0
1.800000 0.200000 0
1.900000 0.200000 0
2.000000 0.200000 0
2.100000 0.200000 0
2.200000 0.200000 0
2.300000 0.200000 0
2.400000 0.200000 0
2.500000 0.200000 0
2.600000 0.200000 0
2.700000 0.200000 0
2.800000 0.200000 0
2.900000 0.200000 0
3.000000 0.200000 0
3.100000 0.200000 0
3.200000 0.200000 0
3.300000 0.200000 0
3.400000 0.200000 0
3.500000 0.200000 0
3.600000 0.200000 0
3.700000 0.200000 0
3.800000 0.200000 0
3.900000 0.200000 0
4.000000 0.200000 0
4.100000 0.200000 0
4.200000 0.200000 0
4.300000 0.200000 0
4.400000 0.200000 0
4.500000 0.200000 0
4.600000 0.200000 0
4.700000 0.200000 0
4.800000 0.200000 0
4.900000 0.200000 0
5.000000 0.200000 0
5.100000 0.200000 0
5.200000 0.200000 0
5.300000 0.200000 0
5.400000 0.200000 0
5.500000 0.200000 0
5.600000 0.200000 0
5.700000 0.200000 0
5.800000 0.200000 0
5.900000 0.200000 0
6.000000 0.200000 0
6.100000 0.200000 0
6.200000 0.200000 0
6.300000 0.200000 0
6.400000 0.200000 0
6.500000 0.200000 0
6.600000 0.200000 0
6.700000 0.200000 0
6.800000 0.200000 0
6.900000 0.200000 0
7.000000 0.200000 0
7.100000 0.200000 0
7.200000 0.200000 0
7.300000 0.200000 0
7.400000 0.200000 0
7.500000 0.200000 0
7.600000 0.200000 0
7.700000 0.200000 0
7.800000 0.200000 0
7.900000 0.200000 0
8.000000 0.200000 0
8.100000 0.200000 0
8.200000 0.200000 0
8.300000 0.200000 0
8.400000 0.200000 0
8.500000 0.200000 0
8.600000 0.200000 0
8.700000 0.200000 0
8.800000 0.200000 0
8.900000 0.200000 0
9.000000 0.200000 0
9.100000 0.200000 0
9.200000 0.200000 0
9.300000 0.200000 0
9.400000 0.200000 0
9.500000 0.200000 0
9.600000 0.200000 0
9.700000 0.200000 0
9.800000 0.200000 0
9.900000 0.200000 0
10.000000 0.200000 0
0.000000 0.300000 0
0.100000 0.300000 0
0.200000 0.300000 0
0.300000 0.300000 0
0.400000 0.300000 0
0.500000 0.300000 0
0.600000 0.300000 0
0.700000 0.300000 0
0.800000 0.300000 0
0.900000 0.300000 0
1.000000 0.300000 0
1.100000 0.300000 0
1.200000 0.300000 0
1.300000 0.300000 0
1.400000 0.300000 0
1.500000 0.300000 0
1.600000 0.300000 0
1.700000 0.300000 0
1.800000 0.300000 0
1.900000 0.300000 0
2.000000 0.300000 0
2.100000 0.300000 0
2.200000 0.300000 0
2.300000 0.300000 0
2.400000 0.300000 0
2.500000 0.300000 0
2.600000 0.300000 0
2.700000 0.300000 0
2.800000 0.300000 0
2.900000 0.300000 0
3.000000 0.300000 0
3.100000 0.300000 0
3.200000 0.300000 0
3.300000 0.300000 0
3.400000 0.300000 0
3.500000 0.300000 0
3.600000 0.300000 0
3.700000 0.300000 0
3.800000 0.300000 0
3.900000 0.300000 0
4.000000 0.300000 0
4.100000 0.300000 0
4.200000 0.300000 0
4.300000 0.300000 0
4.400000 0.300000 0
4.500000 0.300000 0
4.600000 0.300000 0
4.700000 0.300000 0
4.800000 0.300000 0
4.900000 0.300000 0
5.000000 0.300000 0
5.100000 0.300000 0
5.200000 0.300000 0
5.300000 0.300000 0
5.400000 0.300000 0
5.500000 0.300000 0
5.600000 0.300000 0
5.700000 0.300000 0
5.800000 0.300000 0
5.900000 0.300000 0
6.000000 0.300000 0
6.100000 0.300000 0
6.200000 0.300000 0
6.300000 0.300000 0
6.400000 0.300000 0
6.500000 0.300000 0
6.600000 0.300000 0
6.700000 0.300000 0
6.800000 0.300000 0
6.900000 0.300000 0
7.000000 0.300000 0
7.100000 0.300000 0
7.200000 0.300000 0
7.300000 0.300000 0
7.400000 0.300000 0
7.500000 0.300000 0
7.600000 0.300000 0
7.700000 0.300000 0
7.800000 0.300000 0
7.900000 0.300000 0
8.000000 0.300000 0
8.100000 0.300000 0
8.200000 0.300000 0
8.300000 0.300000 0
8.400000 0.300000 0
8.500000 0.300000 0
8.600000 0.300000 0
8.700000 0.300000 0
8.800000 0.300000 0
8.900000 0.300000 0
9.000000 0.300000 0
9.100000 0.300000 0
9.200000 0.300000 0
9.300000 0.300000 0
9.400000 0.300000 0
9.500000 0.300000 0
9.600000 0.300000 0
9.700000 0.300000 0
9.800000 0.300000 0
9.900000 0.300000 0
10.000000 0.300000 0
0.000000 0.400000 0
0.100000 0.400000 0
0.200000 0.400000 0
0.300000 0.400000 0
0.400000 0.400000 0
0.500000 0.400000 0
0.600000 0.400000 0
0.700000 0.400000 0
0.800000 0.400000 0
0.900000 0.400000 0
1.000000 0.400000 0
1.100000 0.400000 0
1.200000 0.400000 0
1.300000 0.400000 0
1.400000 0.400000 0
1.500000 0.400000 0
1.600000 0.400000 0
1.700000 0.400000 0
1.800000 0.400000 0
1.900000 0.400000 0
2.000000 0.400000 0
2.100000 0.400000 0
2.200000 0.400000 0
2.300000 0.400000 0
2.400000 0.400000 0
2.500000 0.400000 0
2.600000 0.400000 0
2.700000 0.400000 0
2.800000 0.400000 0
2.900000 0.400000 0
3.000000 0.400000 0
3.100000 0.400000 0
3.200000 0.400000 0
3.300000 0.400000 0
3.400000 0.400000 0
3.500000 0.400000 0
3.600000 0.400000 0
3.700000 0.400000 0
3.800000 0.400000 0
3.900000 0.400000 0
4.000000 0.400000 0
4.100000 0.400000 0
4.200000 0.400000 0
4.300000 0.400000 0
4.400000 0.400000 0
4.500000 0.400000 0
4.600000 0.400000 0
4.700000 0.400000 0
4.800000 0.400000 0
4.900000 0.400000 0
5.000000 0.400000 0
5.100000 0.400000 0
5.200000 0.400000 0
5.300000 0.400000 0
5.400000 0.400000 0
5.500000 0.400000 0
5.600000 0.400000 0
5.700000 0.400000 0
5.800000 0.400000 0
5.900000 0.400000 0
6.000000 0.400000 0
6.100000 0.400000 0
6.200000 0.400000 0
6.300000 0.400000 0
6.400000 0.400000 0
6.500000 0.400000 0
6.600000 0.400000 0
6.700000 0.400000 0
6.800000 0.400000 0
6.900000 0.400000 0
7.000000 0.400000 0
7.100000 0.400000 0
7.200000 0.400000 0
7.300000 0.400000 0
7.400000 0.400000 0
7.500000 0.400000 0
7.600000 0.400000 0
7.700000 0.400000 0
7.800000 0.400000 0
7.900000 0.400000 0
8.000000 0.400000 0
8.100000 0.400000 0
8.200000 0.400000 0
8.300000 0.400000 0
8.400000 0.400000 0
8.500000 0.400000 0
8.600000 0.400000 0
[...]
POINT_DATA 2121 

VECTORS velocity float
0.500000 0.000000 0
-0.000052 0.000000 0
-0.000158 0.000000 0
-0.000284 0.000000 0
-0.000402 0.000000 0
-0.000479 0.000000 0
-0.000480 0.000000 0
-0.000355 0.000000 0
-0.000071 0.000000 0
0.000304 0.000000 0
0.000711 0.000000 0
0.001097 0.000000 0
0.001537 0.000000 0
0.001952 0.000000 0
0.002272 0.000000 0
0.002450 0.000000 0
0.002437 0.000000 0
0.002136 0.000000 0
0.001783 0.000000 0
-0.000260 0.000000 0
-0.003750 0.000000 0
-0.008004 0.000000 0
-0.009788 0.000000 0
-0.008722 0.000000 0
-0.006676 0.000000 0
-0.003878 0.000000 0
-0.000518 0.000000 0
0.002533 0.000000 0
0.005093 0.000000 0
0.006231 0.000000 0
0.006265 0.000000 0
0.018647 0.000000 0
0.037476 0.000000 0
0.019807 0.000000 0
0.000405 0.000000 0
-0.003319 0.000000 0
-0.011521 0.000000 0
0.002603 0.000000 0
0.010381 0.000000 0
0.007706 0.000000 0
0.002586 0.000000 0
-0.001090 0.000000 0
-0.004074 0.000000 0
-0.007985 0.000000 0
-0.012720 0.000000 0
-0.015946 0.000000 0
-0.015419 0.000000 0
-0.011415 0.000000 0
-0.007350 0.000000 0
-0.006053 0.000000 0
-0.008507 0.000000 0
-0.009848 0.000000 0
-0.011698 0.000000 0
-0.013948 0.000000 0
-0.015889 0.000000 0
-0.017454 0.000000 0
-0.018062 0.000000 0
-0.017163 0.000000 0
-0.014633 0.000000 0
-0.011352 0.000000 0
-0.007400 0.000000 0
-0.002921 0.000000 0
0.001836 0.000000 0
0.006942 0.000000 0
0.012817 0.000000 0
0.018906 0.000000 0
0.023535 0.000000 0
0.022441 0.000000 0
0.019185 0.000000 0
0.029104 0.000000 0
0.036233 0.000000 0
0.021429 0.000000 0
0.005977 0.000000 0
-0.004823 0.000000 0
-0.008287 0.000000 0
-0.007500 0.000000 0
-0.008978 0.000000 0
-0.005185 0.000000 0
-0.001665 0.000000 0
0.000073 0.000000 0
0.000826 0.000000 0
0.001276 0.000000 0
0.003135 0.000000 0
0.007692 0.000000 0
0.009724 0.000000 0
0.007526 0.000000 0
0.003875 0.000000 0
0.000763 0.000000 0
-0.001467 0.000000 0
-0.003036 0.000000 0
-0.004211 0.000000 0
-0.005181 0.000000 0
-0.006051 0.000000 0
-0.006788 0.000000 0
-0.007308 0.000000 0
-0.007663 0.000000 0
-0.007860 0.000000 0
-0.007894 0.000000 0
-0.007874 0.000000 0
-0.007913 0.000000 0
-0.007923 0.000000 0
1.000000 -0.004495 0
1.009601 -0.014113 0
1.029692 -0.024699 0
1.061015 -0.035584 0
1.103710 -0.045765 0
1.156798 -0.053639 0
1.217166 -0.057066 0
1.279645 -0.053313 0
1.333459 -0.041261 0
1.369242 -0.023419 0
1.383568 -0.003632 0
1.377190 0.015360 0
1.352449 0.032217 0
1.311928 0.046179 0
1.258946 0.056563 0
1.197551 0.062925 0
1.132197 0.065086 0
1.067152 0.065913 0
1.003190 0.065814 0
0.932536 0.050365 0
0.885210 0.012029 0
0.888497 -0.043073 0
0.963901 -0.086872 0
1.070303 -0.100906 0
1.186435 -0.093346 0
1.282618 -0.066733 0
1.339968 -0.028426 0
1.351043 0.012181 0
1.320809 0.047371 0
1.257947 0.066556 0
1.171822 0.097145 0
1.047426 0.255626 0
0.845794 0.380397 0
0.651623 0.232740 0
0.590043 0.004632 0
0.691947 -0.103561 0
0.673409 -0.102302 0
0.516606 0.002050 0
0.346100 0.104999 0
0.229852 0.097384 0
0.184809 0.035278 0
0.187652 -0.019679 0
0.212592 -0.056280 0
0.257340 -0.092809 0
0.337082 -0.134518 0
0.461236 -0.162619 0
0.619960 -0.155409 0
0.779499 -0.113689 0
0.900517 -0.067187 0
0.973567 -0.045586 0
1.020594 -0.047230 0
1.065638 -0.055207 0
1.118024 -0.066157 0
1.184411 -0.080909 0
1.267387 -0.096044 0
1.363293 -0.107849 0
1.467784 -0.112755 0
1.574907 -0.107689 0
1.672672 -0.092763 0
1.751922 -0.071049 0
1.809379 -0.044589 0
1.841522 -0.014070 0
1.844589 0.019539 0
1.814186 0.056239 0
1.746374 0.096773 0
1.642989 0.137651 0
1.510224 0.164400 0
1.362966 0.160487 0
1.218938 0.165616 0
1.067361 0.265040 0
0.886239 0.339439 0
0.724233 0.247857 0
0.631898 0.087927 0
0.612656 -0.043028 0
0.602665 -0.100358 0
0.558858 -0.105930 0
0.576069 -0.105699 0
0.654722 -0.079377 0
0.694481 -0.038227 0
0.705492 -0.012866 0
0.697648 -0.000933 0
0.667601 0.008769 0
0.606355 0.036935 0
0.504972 0.093092 0
0.384076 0.132352 0
0.282539 0.116789 0
0.221557 0.071084 0
0.198794 0.026765 0
0.203367 -0.005003 0
0.225316 -0.024898 0
0.258234 -0.037101 0
0.297723 -0.045139 0
0.342330 -0.051094 0
0.391907 -0.055085 0
0.445796 -0.056721 0
0.502016 -0.056126 0
0.557343 -0.053068 0
0.608236 -0.045964 0
0.649612 -0.037830 0
0.684666 -0.025206 0
0.700109 -0.015830 0
1.000000 -0.009607 0
1.009857 -0.029701 0
1.030558 -0.051420 0
1.063322 -0.074025 0
1.109038 -0.095790 0
1.167953 -0.113464 0
1.237327 -0.122856 0
1.315681 -0.116303 0
1.382946 -0.089608 0
1.424198 -0.050122 0
1.438053 -0.007961 0
1.428690 0.031107 0
1.400534 0.065249 0
1.355851 0.093489 0
1.297976 0.114363 0
1.231440 0.126735 0
1.161627 0.130385 0
1.094118 0.128993 0
1.034217 0.134603 0
0.963768 0.117967 0
0.866922 0.044026 0
0.803756 -0.078703 0
0.890683 -0.181818 0
1.028275 -0.222545 0
1.171738 -0.212326 0
1.298121 -0.153543 0
1.384394 -0.068435 0
1.415230 0.019149 0
1.397073 0.093088 0
1.337324 0.148979 0
1.245710 0.210513 0
1.150274 0.326021 0
1.149701 0.395796 0
1.156129 0.255744 0
1.062578 -0.040331 0
0.886440 -0.083374 0
0.702813 0.175334 0
0.489785 0.327302 0
0.345275 0.286747 0
0.307826 0.161284 0
0.329531 0.042191 0
0.339821 -0.027792 0
0.309321 -0.069696 0
0.280903 -0.124499 0
0.303337 -0.203906 0
0.355415 -0.282888 0
0.449999 -0.318274 0
0.599808 -0.280569 0
0.763895 -0.194080 0
0.883781 -0.120090 0
0.948084 -0.092084 0
0.985038 -0.097443 0
1.021676 -0.118787 0
1.070148 -0.149377 0
1.133865 -0.178896 0
1.211942 -0.200411 0
1.296252 -0.211629 0
1.385655 -0.204902 0
1.470292 -0.177028 0
1.540825 -0.136721 0
1.594593 -0.089614 0
1.628811 -0.035224 0
1.640671 0.027324 0
1.627420 0.098203 0
1.586496 0.171184 0
1.524472 0.236139 0
1.452122 0.280013 0
1.373712 0.291276 0
1.284024 0.295595 0
1.211442 0.332691 0
1.222004 0.343120 0
1.246367 0.254333 0
1.230203 0.111571 0
1.171692 0.029227 0
1.069814 0.053793 0
0.971619 0.026593 0
0.869425 -0.095867 0
0.700344 -0.118415 0
0.614325 -0.050772 0
0.599744 -0.003168 0
0.589365 0.037891 0
0.546583 0.091293 0
0.464465 0.162630 0
0.367705 0.222281 0
0.304479 0.222435 0
0.281242 0.162522 0
0.283608 0.083748 0
0.297303 0.018194 0
0.315955 -0.026517 0
0.339187 -0.054862 0
0.366539 -0.072402 0
0.397158 -0.084090 0
0.429772 -0.094178 0
0.465428 -0.103460 0
0.507408 -0.110102 0
0.556931 -0.111540 0
0.610806 -0.106213 0
0.662568 -0.092261 0
0.704387 -0.076422 0
0.736172 -0.050490 0
0.750489 -0.030883 0
1.000000 -0.014355 0
1.008614 -0.044674 0
1.028248 -0.078165 0
1.061074 -0.114066 0
1.109203 -0.150399 0
1.175326 -0.181929 0
1.256517 -0.204796 0
1.369845 -0.198936 0
1.457404 -0.149782 0
1.505528 -0.078531 0
1.518621 -0.008129 0
1.503633 0.052874 0
1.465132 0.105050 0
1.409325 0.148732 0
1.339554 0.180969 0
1.260910 0.199268 0
1.179256 0.202403 0
1.107921 0.193319 0
1.088276 0.196159 0
0.969707 0.217656 0
0.684882 0.172036 0
0.551857 -0.066838 0
0.645429 -0.311394 0
0.746749 -0.381964 0
0.922231 -0.363196 0
1.132971 -0.279393 0
1.269084 -0.145538 0
1.348326 -0.000501 0
1.388811 0.125274 0
1.376919 0.217916 0
1.322909 0.284192 0
1.259638 0.351632 0
1.247088 0.374540 0
1.233953 0.319861 0
1.104661 0.274318 0
0.799305 0.256201 0
0.595563 0.294350 0
0.500445 0.359586 0
0.450095 0.286956 0
0.493764 0.113124 0
0.599262 0.003280 0
0.556435 0.000529 0
0.406200 0.002634 0
0.352451 -0.086829 0
0.408181 -0.209035 0
0.454786 -0.309286 0
0.453057 -0.399806 0
0.487963 -0.427590 0
0.607666 -0.351164 0
0.746753 -0.229780 0
0.835015 -0.148492 0
0.870722 -0.128806 0
0.885573 -0.151273 0
0.900678 -0.193104 0
0.929542 -0.237843 0
0.985458 -0.270241 0
1.058572 -0.286473 0
1.134650 -0.281735 0
1.204780 -0.247939 0
1.266754 -0.195355 0
1.315481 -0.132581 0
1.346691 -0.060152 0
1.359071 0.020926 0
1.362667 0.110409 0
1.349972 0.199718 0
1.321218 0.272021 0
1.280815 0.315156 0
1.243405 0.328582 0
1.217633 0.327884 0
1.225326 0.327058 0
1.280162 0.304512 0
1.334409 0.239656 0
1.336549 0.162599 0
1.275113 0.117360 0
1.204920 0.099714 0
1.166853 0.094459 0
1.057796 0.165576 0
0.869483 0.175722 0
0.711233 0.062373 0
0.579547 0.012093 0
0.482395 0.052229 0
0.413872 0.133671 0
0.371549 0.215813 0
0.361863 0.253079 0
0.384218 0.218817 0
0.418291 0.137662 0
0.444513 0.055025 0
0.456625 -0.005581 0
0.460615 -0.046884 0
0.466753 -0.075480 0
0.480550 -0.095070 0
0.501051 -0.108369 0
0.522883 -0.119361 0
0.543138 -0.132718 0
0.565582 -0.148222 0
0.598808 -0.159521 0
0.645954 -0.158701 0
0.700258 -0.139542 0
0.747304 -0.111430 0
0.780442 -0.071304 0
0.793854 -0.044400 0
1.000000 -0.018222 0
1.005465 -0.057951 0
1.022242 -0.103880 0
1.053306 -0.154980 0
1.102180 -0.210043 0
1.173895 -0.260779 0
1.266979 -0.317378 0
1.453219 -0.317193 0
1.566394 -0.225294 0
1.615077 -0.111343 0
1.622637 -0.006071 0
1.600762 0.084591 0
1.555434 0.159552 0
1.487731 0.219062 0
1.394806 0.262773 0
1.286149 0.287029 0
1.185578 0.283369 0
1.049268 0.219967 0
1.171269 0.272813 0
1.258580 0.521358 0
1.095099 0.461872 0
0.829769 -0.039254 0
0.418350 -0.376713 0
0.228527 -0.499350 0
0.320246 -0.598552 0
0.602758 -0.500399 0
0.898761 -0.283792 0
1.093555 -0.100582 0
1.196944 0.064492 0
1.256459 0.214880 0
1.287267 0.327792 0
1.282111 0.401839 0
1.269164 0.421479 0
1.225895 0.398169 0
1.138667 0.394314 0
1.033184 0.425722 0
0.903784 0.474192 0
0.836307 0.472768 0
0.858022 0.293426 0
0.904823 0.012113 0
0.830370 -0.020483 0
0.531683 0.165267 0
0.391493 0.134284 0
0.421589 -0.126484 0
0.506904 -0.306245 0
0.614700 -0.327769 0
0.642871 -0.351456 0
0.570778 -0.435182 0
0.544253 -0.452875 0
0.624623 -0.347445 0
0.729502 -0.216059 0
0.788546 -0.148007 0
0.795079 -0.148749 0
0.774222 -0.193352 0
0.762124 -0.263681 0
0.777905 -0.329446 0
0.820940 -0.360826 0
0.881531 -0.351116 0
0.965384 -0.309138 0
1.050356 -0.247427 0
1.093236 -0.169556 0
1.114412 -0.078819 0
1.111948 0.011343 0
1.057557 0.107297 0
1.031132 0.212629 0
1.027465 0.305292 0
1.004627 0.357823 0
1.014225 0.354454 0
1.053288 0.313672 0
1.118750 0.270160 0
1.211328 0.234034 0
1.298572 0.197944 0
1.343067 0.170865 0
1.339219 0.160855 0
1.306184 0.162053 0
1.244940 0.173715 0
1.164760 0.201502 0
1.137261 0.228148 0
1.034745 0.239163 0
0.847652 0.225670 0
0.642744 0.203566 0
0.531343 0.202140 0
0.511857 0.214641 0
0.541336 0.209613 0
0.580848 0.166009 0
0.601533 0.102230 0
0.595956 0.045415 0
0.576915 0.002094 0
0.561887 -0.036642 0
0.560354 -0.074795 0
0.573756 -0.106698 0
0.598636 -0.126420 0
0.629914 -0.136262 0
0.657900 -0.146156 0
0.675011 -0.165768 0
0.687747 -0.191909 0
0.711071 -0.207660 0
0.750808 -0.193608 0
0.799270 -0.156603 0
0.832361 -0.097037 0
0.844111 -0.057602 0
1.000000 -0.019821 0
1.002261 -0.066917 0
1.012362 -0.126005 0
1.035144 -0.194003 0
1.080886 -0.270988 0
1.147428 -0.346729 0
1.254133 -0.484122 0
1.576557 -0.498354 0
1.671550 -0.311643 0
1.684425 -0.134777 0
1.677841 0.006181 0
1.659337 0.120071 0
1.636490 0.218077 0
1.595539 0.309356 0
1.511031 0.382547 0
1.387037 0.408493 0
1.206965 0.439280 0
0.979654 0.207624 0
0.681653 -0.013156 0
0.672411 0.293822 0
0.784579 0.600844 0
0.571599 0.609908 0
0.133158 0.289845 0
-0.082763 -0.283863 0
-0.135911 -0.737429 0
-0.000125 -0.857910 0
0.340853 -0.636336 0
0.684466 -0.298686 0
0.901231 -0.037632 0
1.039150 0.127591 0
1.121983 0.258537 0
1.188836 0.369733 0
1.237398 0.430755 0
1.240942 0.450356 0
1.202561 0.467026 0
1.159975 0.491082 0
1.139152 0.491225 0
1.186123 0.405346 0
1.278637 0.218437 0
1.216330 0.140773 0
0.821778 0.376417 0
0.523369 0.439403 0
0.517200 0.112725 0
0.563336 -0.202243 0
0.498132 -0.402150 0
0.476089 -0.445257 0
0.580064 -0.355889 0
0.630174 -0.328977 0
0.585190 -0.405013 0
0.574686 -0.415034 0
0.651960 -0.312421 0
0.746739 -0.194387 0
0.801383 -0.136954 0
0.814332 -0.160154 0
0.808139 -0.241532 0
0.792533 -0.329062 0
0.779455 -0.390104 0
0.774227 -0.426185 0
0.803100 -0.416769 0
0.884214 -0.323213 0
0.968309 -0.196641 0
0.971904 -0.078869 0
0.938193 0.077777 0
0.936648 0.191222 0
0.883478 0.229805 0
0.757208 0.298523 0
0.717003 0.328392 0
0.752468 0.279917 0
0.821238 0.223356 0
0.965299 0.169015 0
1.128268 0.124687 0
1.248500 0.107914 0
1.330860 0.121951 0
1.362864 0.154241 0
1.359034 0.193991 0
1.325317 0.235882 0
1.271486 0.273255 0
1.206024 0.305737 0
1.120722 0.351982 0
1.019859 0.404095 0
0.928734 0.368538 0
0.895227 0.264558 0
0.879249 0.205821 0
0.838440 0.184090 0
0.796199 0.158621 0
0.759058 0.122555 0
0.721146 0.079645 0
0.697205 0.028491 0
0.696363 -0.030321 0
0.711418 -0.087346 0
0.730493 -0.133349 0
0.751564 -0.164525 0
0.781984 -0.178622 0
0.822342 -0.177812 0
0.856806 -0.178066 0
0.869955 -0.195577 0
0.862529 -0.221758 0
0.852049 -0.227738 0
0.866001 -0.192980 0
0.893966 -0.116142 0
0.905120 -0.067857 0
1.000000 -0.020483 0
1.000058 -0.070311 0
1.003127 -0.136762 0
1.005343 -0.223504 0
1.041917 -0.322326 0
1.075512 -0.434026 0
1.224390 -0.746508 0
1.596467 -0.734612 0
1.498986 -0.333165 0
1.392408 -0.117638 0
1.371238 0.019012 0
1.380001 0.125938 0
1.418859 0.223347 0
1.510094 0.344517 0
1.507352 0.471271 0
1.447611 0.591091 0
1.323681 0.690749 0
1.164592 0.745277 0
0.660410 0.580052 0
0.141917 0.418429 0
0.015229 0.562681 0
0.066145 0.612164 0
0.149735 0.277647 0
0.159380 -0.230284 0
0.040607 -0.681192 0
-0.104618 -0.977165 0
-0.042651 -0.968386 0
0.260628 -0.660962 0
0.584654 -0.290193 0
0.814840 -0.005874 0
0.956587 0.178104 0
1.052248 0.286422 0
1.128958 0.369372 0
1.185609 0.433004 0
1.208440 0.475279 0
1.219224 0.489129 0
1.239066 0.448042 0
1.264734 0.333281 0
1.208714 0.263217 0
0.975767 0.468970 0
0.737949 0.672475 0
0.766796 0.469841 0
0.734628 0.094313 0
0.644610 -0.107419 0
0.452684 -0.219002 0
0.229373 -0.409705 0
0.215849 -0.505545 0
0.388193 -0.440313 0
0.535241 -0.397392 0
0.596050 -0.414219 0
0.639713 -0.388117 0
0.725659 -0.297434 0
0.827775 -0.216347 0
0.891181 -0.200114 0
0.899396 -0.241887 0
0.848848 -0.300767 0
0.794766 -0.342525 0
0.767901 -0.374766 0
0.748647 -0.419130 0
0.759850 -0.412640 0
0.841366 -0.257251 0
0.909619 -0.048707 0
0.926070 0.046595 0
0.907208 0.162008 0
0.777818 0.392064 0
0.657294 0.471763 0
0.603353 0.362560 0
0.512699 0.250217 0
0.499624 0.100838 0
0.633060 -0.036873 0
0.859596 -0.049169 0
1.077112 -0.004649 0
1.195715 0.056499 0
1.231468 0.132679 0
1.234205 0.199599 0
1.218805 0.261262 0
1.195262 0.320794 0
1.173860 0.378912 0
1.168884 0.425329 0
1.195006 0.417658 0
1.225754 0.328199 0
1.165416 0.251626 0
1.047645 0.271428 0
0.949800 0.292665 0
0.889081 0.245394 0
0.849315 0.177284 0
0.830354 0.107271 0
0.836072 0.026879 0
0.855409 -0.050853 0
0.875062 -0.108921 0
0.892476 -0.146841 0
0.906885 -0.177907 0
0.920839 -0.207037 0
0.939707 -0.220975 0
0.964218 -0.213377 0
0.977143 -0.197628 0
0.949358 -0.189751 0
0.879121 -0.197077 0
0.820474 -0.198516 0
0.850150 -0.136153 0
0.859652 -0.080356 0
1.000000 -0.019877 0
0.996330 -0.070040 0
0.996430 -0.131287 0
0.980629 -0.232791 0
0.982304 -0.341155 0
0.965827 -0.529202 0
1.119214 -1.005077 0
0.771322 -0.665364 0
-0.001753 0.000000 0
-0.004513 0.000000 0
0.531929 0.025617 0
0.570746 0.072446 0
0.511250 0.087981 0
1.008628 0.220859 0
1.187787 0.445027 0
1.251776 0.592161 0
1.275778 0.722296 0
1.216539 0.870892 0
1.105143 1.009515 0
0.736480 0.939001 0
0.513469 0.676614 0
0.512636 0.475399 0
0.571483 0.196607 0
0.580613 -0.174738 0
0.471803 -0.473433 0
0.237662 -0.774654 0
0.016023 -1.001584 0
0.051712 -0.925992 0
0.308536 -0.591846 0
0.572963 -0.244343 0
0.795591 0.021127 0
0.945541 0.197360 0
1.032826 0.297393 0
1.100067 0.370871 0
1.163325 0.433410 0
1.211570 0.460455 0
1.235230 0.445713 0
1.199572 0.435695 0
1.052377 0.507401 0
0.881379 0.611536 0
0.929699 0.585386 0
1.044862 0.442721 0
1.006213 0.234907 0
0.830606 0.079697 0
0.669234 0.013084 0
0.560018 -0.208425 0
0.439314 -0.514713 0
0.399851 -0.648374 0
0.497720 -0.612875 0
0.652989 -0.519511 0
0.771499 -0.442034 0
0.865010 -0.382454 0
0.947306 -0.302482 0
0.976439 -0.231779 0
0.905624 -0.199204 0
0.803278 -0.224437 0
0.717244 -0.309162 0
0.684888 -0.380071 0
0.690553 -0.408722 0
0.698660 -0.415935 0
0.742480 -0.346415 0
0.847710 -0.163578 0
0.901198 0.080184 0
0.791896 0.339471 0
0.704582 0.479715 0
0.744797 0.472984 0
0.730370 0.472984 0
0.654638 0.383643 0
0.611626 0.102993 0
0.521942 -0.190959 0
0.553427 -0.319367 0
0.743996 -0.228206 0
0.915854 -0.032406 0
1.027877 0.115750 0
1.073879 0.206653 0
1.078326 0.274825 0
1.076063 0.318199 0
1.083665 0.332115 0
1.094554 0.330836 0
1.096913 0.347225 0
1.064450 0.398129 0
0.984588 0.442668 0
0.924135 0.421439 0
0.928253 0.342656 0
0.948139 0.259108 0
0.962482 0.181283 0
0.977327 0.092890 0
0.988775 0.003439 0
0.991588 -0.069309 0
0.989931 -0.124410 0
0.993188 -0.165169 0
1.002975 -0.192884 0
1.011643 -0.211440 0
1.013898 -0.221187 0
1.014664 -0.215499 0
1.016404 -0.180713 0
1.012862 -0.123733 0
0.990154 -0.098851 0
0.929813 -0.164005 0
0.847918 -0.155317 0
0.832152 -0.088926 0
1.000000 -0.016808 0
0.999035 -0.066734 0
0.974245 -0.121057 0
0.977916 -0.209375 0
0.903675 -0.307521 0
0.897772 -0.570933 0
0.621101 -0.659589 0
0.000000 0.002560 0
-0.644288 0.260492 0
-0.550256 0.000000 0
0.000000 0.000000 0
0.024577 0.145574 0
0.073163 -0.214539 0
0.233332 -0.332024 0
0.504847 0.228120 0
0.771736 0.503098 0
0.936292 0.725984 0
1.017868 0.915909 0
1.019621 1.060109 0
1.005031 1.010100 0
0.938989 0.786524 0
0.753350 0.554148 0
0.687455 0.209667 0
0.645737 -0.130606 0
0.628829 -0.338242 0
0.574536 -0.521387 0
0.398497 -0.782437 0
0.192997 -0.953475 0
0.216855 -0.811446 0
0.415481 -0.492930 0
0.641350 -0.194476 0
0.832071 0.049186 0
0.956980 0.214845 0
1.030899 0.302503 0
1.105166 0.363774 0
1.169670 0.417223 0
1.199920 0.460039 0
1.176712 0.516132 0
1.126470 0.581408 0
1.131644 0.591645 0
1.196194 0.508989 0
1.225269 0.393324 0
1.202594 0.308567 0
1.099244 0.229557 0
1.078368 0.051583 0
1.156024 -0.179788 0
1.171685 -0.345382 0
1.144987 -0.498724 0
1.088822 -0.650533 0
0.987780 -0.688002 0
0.948358 -0.600143 0
0.968113 -0.473246 0
0.975955 -0.327781 0
0.968508 -0.158437 0
0.961995 -0.068731 0
0.956810 -0.112391 0
0.938289 -0.224139 0
0.886571 -0.348079 0
0.814902 -0.432906 0
0.742074 -0.464571 0
0.730641 -0.406305 0
0.762780 -0.207430 0
0.796220 0.102405 0
0.827787 0.358620 0
0.911398 0.439159 0
0.925481 0.445972 0
0.809061 0.452716 0
0.738037 0.368958 0
0.691393 0.233530 0
0.529837 0.021323 0
0.378172 -0.271224 0
0.385382 -0.367078 0
0.537755 -0.227384 0
0.717200 -0.025346 0
0.830073 0.149149 0
0.890130 0.259077 0
0.909598 0.315455 0
0.894077 0.360421 0
0.853822 0.412081 0
0.822325 0.447762 0
0.829433 0.440525 0
0.889698 0.391943 0
0.972461 0.327765 0
1.033455 0.268663 0
1.070053 0.211167 0
1.094467 0.148098 0
1.106878 0.080980 0
1.104580 0.012621 0
1.094793 -0.052006 0
1.087584 -0.110519 0
1.085018 -0.159882 0
1.087415 -0.196359 0
1.090802 -0.217957 0
1.090536 -0.223993 0
1.084489 -0.215879 0
1.078767 -0.195822 0
1.090170 -0.163498 0
1.123116 -0.114024 0
1.140528 -0.056277 0
1.076295 -0.038488 0
1.062810 -0.051920 0
1.000000 -0.018905 0
0.993000 -0.044276 0
0.971562 -0.110164 0
0.950461 -0.162217 0
0.883579 -0.261007 0
0.808872 -0.246622 0
0.448652 -0.199459 0
0.315993 -0.136419 0
0.000000 0.000000 0
0.000000 0.000000 0
0.000000 0.000000 0
0.000000 0.000000 0
0.147332 -0.119020 0
-0.223461 -0.210827 0
-0.088849 -0.093378 0
0.343879 0.160714 0
0.707029 0.476162 0
0.922010 0.787561 0
0.941120 1.022350 0
0.986011 1.019631 0
0.865277 0.928293 0
0.693504 0.726932 0
0.640992 0.304219 0
0.592827 -0.116113 0
0.572680 -0.402233 0
0.625398 -0.544323 0
0.650080 -0.620047 0
0.516526 -0.744351 0
0.366767 -0.814332 0
0.400271 -0.668839 0
0.563718 -0.395463 0
0.755760 -0.118270 0
0.907901 0.098563 0
0.998603 0.222684 0
1.067152 0.294638 0
1.133161 0.365699 0
1.180818 0.438670 0
1.210064 0.509144 0
1.243879 0.552468 0
1.295485 0.541810 0
1.329202 0.491758 0
1.313319 0.436318 0
1.280041 0.360929 0
1.282736 0.203920 0
1.316401 -0.043699 0
1.293559 -0.301746 0
1.258405 -0.503680 0
1.297516 -0.565515 0
1.360513 -0.455672 0
1.301249 -0.379052 0
1.161735 -0.422372 0
1.034255 -0.410055 0
0.980460 -0.302882 0
1.005645 -0.217824 0
1.102593 -0.187510 0
1.189800 -0.200735 0
1.242154 -0.238929 0
1.226265 -0.256689 0
1.150243 -0.264229 0
1.000136 -0.331679 0
0.806522 -0.367126 0
0.728899 -0.229162 0