# vtk DataFile Version 2.0
generated by CFD-lab course output (written by Tobias Neckel) 
ASCII

DATASET STRUCTURED_GRID
DIMENSIONS  101 21 1 
POINTS 2121 float

0.000000 0.000000 0
0.100000 0.000000 0
0.200000 0.000000 0
0.300000 0.000000 0
0.400000 0.000000 0
0.500000 0.000000 0
0.600000 0.000000 0
0.700000 0.000000 0
0.800000 0.000000 0
0.900000 0.000000 0
1.000000 0.000000 0
1.100000 0.000000 0
1.200000 0.000000 0
1.300000 0.000000 0
1.400000 0.000000 0
1.500000 0.000000 0
1.600000 0.000000 0
1.700000 0.000000 0
1.800000 0.000000 0
1.900000 0.000000 0
2.000000 0.000000 0
2.100000 0.000000 0
2.200000 0.000000 0
2.300000 0.000000 0
2.400000 0.000000 0
2.500000 0.000000 0
2.600000 0.000000 0
2.700000 0.000000 0
2.800000 0.000000 0
2.900000 0.000000 0
3.000000 0.000000 0
3.100000 0.000000 0
3.200000 0.000000 0
3.300000 0.000000 0
3.400000 0.000000 0
3.500000 0.000000 0
3.600000 0.000000 0
3.700000 0.000000 0
3.800000 0.000000 0
3.900000 0.000000 0
4.000000 0.000000 0
4.100000 0.000000 0
4.200000 0.000000 0
4.300000 0.000000 0
4.400000 0.000000 0
4.500000 0.000000 0
4.600000 0.000000 0
4.700000 0.000000 0
4.800000 0.000000 0
4.900000 0.000000 0
5.000000 0.000000 0
5.100000 0.000000 0
5.200000 0.000000 0
5.300000 0.000000 0
5.400000 0.000000 0
5.500000 0.000000 0
5.600000 0.000000 0
5.700000 0.000000 0
5.800000 0.000000 0
5.900000 0.000000 0
6.000000 0.000000 0
6.100000 0.000000 0
6.200000 0.000000 0
6.300000 0.000000 0
6.400000 0.000000 0
6.500000 0.000000 0
6.600000 0.000000 0
6.700000 0.000000 0
6.800000 0.000000 0
6.900000 0.000000 0
7.000000 0.000000 0
7.100000 0.000000 0
7.200000 0.000000 0
7.300000 0.000000 0
7.400000 0.000000 0
7.500000 0.000000 0
7.600000 0.000000 0
7.700000 0.000000 0
7.800000 0.000000 0
7.900000 0.000000 0
8.000000 0.000000 0
8.100000 0.000000 0
8.200000 0.000000 0
8.300000 0.000000 0
8.400000 0.000000 0
8.500000 0.000000 0
8.600000 0.000000 0
8.700000 0.000000 0
8.800000 0.000000 0
8.900000 0.000000 0
9.000000 0.000000 0
9.100000 0.000000 0
9.200000 0.000000 0
9.300000 0.000000 0
9.400000 0.000000 0
9.500000 0.000000 0
9.600000 0.000000 0
9.700000 0.000000 0
9.800000 0.000000 0
9.900000 0.000000 0
10.000000 0.000000 0
0.000000 0.100000 0
0.100000 0.100000 0
0.200000 0.100000 0
0.300000 0.100000 0
0.400000 0.100000 0
0.500000 0.100000 0
0.600000 0.100000 0
0.700000 0.100000 0
0.800000 0.100000 0
0.900000 0.100000 0
1.000000 0.100000 0
1.100000 0.100000 0
1.200000 0.100000 0
1.300000 0.100000 0
1.400000 0.100000 0
1.500000 0.100000 0
1.600000 0.100000 0
1.700000 0.100000 0
1.800000 0.100000 0
1.900000 0.100000 0
2.000000 0.100000 0
2.100000 0.100000 0
2.200000 0.100000 0
2.300000 0.100000 0
2.400000 0.100000 0
2.500000 0.100000 0
2.600000 0.100000 0
2.700000 0.100000 0
2.800000 0.100000 0
2.900000 0.100000 0
3.000000 0.100000 0
3.100000 0.100000 0
3.200000 0.100000 0
3.300000 0.100000 0
3.400000 0.100000 0
3.500000 0.100000 0
3.600000 0.100000 0
3.700000 0.100000 0
3.800000 0.100000 0
3.900000 0.100000 0
4.000000 0.100000 0
4.100000 0.100000 0
4.200000 0.100000 0
4.300000 0.100000 0
4.400000 0.100000 0
4.500000 0.100000 0
4.600000 0.100000 0
4.700000 0.100000 0
4.800000 0.100000 0
4.900000 0.100000 0
5.000000 0.100000 0
5.100000 0.100000 0
5.200000 0.100000 0
5.300000 0.100000 0
5.400000 0.100000 0
5.500000 0.100000 0
5.600000 0.100000 0
5.700000 0.100000 0
5.800000 0.100000 0
5.900000 0.100000 0
6.000000 0.100000 0
6.100000 0.100000 0
6.200000 0.100000 0
6.300000 0.100000 0
6.400000 0.100000 0
6.500000 0.100000 0
6.600000 0.100000 0
6.700000 0.100000 0
6.800000 0.100000 0
6.900000 0.100000 0
7.000000 0.100000 0
7.100000 0.100000 0
7.200000 0.100000 0
7.300000 0.100000 0
7.400000 0.100000 0
7.500000 0.100000 0
7.600000 0.100000 0
7.700000 0.100000 0
7.800000 0.100000 0
7.900000 0.100000 0
8.000000 0.100000 0
8.100000 0.100000 0
8.200000 0.100000 0
8.300000 0.100000 0
8.400000 0.100000 0
8.500000 0.100000 0
8.600000 0.100000 0
8.700000 0.100000 0
8.800000 0.100000 0
8.900000 0.100000 0
9.000000 0.100000 0
9.100000 0.100000 0
9.200000 0.100000 0
9.300000 0.100000 0
9.400000 0.100000 0
9.500000 0.100000 0
9.600000 0.100000 0
9.700000 0.100000 0
9.800000 0.100000 0
9.900000 0.100000 0
10.000000 0.100000 0
0.000000 0.200000 0
0.100000 0.200000 0
0.200000 0.200000 0
0.300000 0.200000 0
0.400000 0.200000 0
0.500000 0.200000 0
0.600000 0.200000 0
0.700000 0.200000 0
0.800000 0.200000 0
0.900000 0.200000 0
1.000000 0.200000 0
1.100000 0.200000 0
1.200000 0.200000 0
1.300000 0.200000 0
1.400000 0.200000 0
1.500000 0.200000 0
1.600000 0.200000 0
1.700000 0.200000 0
1.800000 0.200000 0
1.900000 0.200000 0
2.000000 0.200000 0
2.100000 0.200000 0
2.200000 0.200000 0
2.300000 0.200000 0
2.400000 0.200000 0
2.500000 0.200000 0
2.600000 0.200000 0
2.700000 0.200000 0
2.800000 0.200000 0
2.900000 0.200000 0
3.000000 0.200000 0
3.100000 0.200000 0
3.200000 0.200000 0
3.300000 0.200000 0
3.400000 0.200000 0
3.500000 0.200000 0
3.600000 0.200000 0
3.700000 0.200000 0
3.800000 0.200000 0
3.900000 0.200000 0
4.000000 0.200000 0
4.100000 0.200000 0
4.200000 0.200000 0
4.300000 0.200000 0
4.400000 0.200000 0
4.500000 0.200000 0
4.600000 0.200000 0
4.700000 0.200000 0
4.800000 0.200000 0
4.900000 0.200000 0
5.000000 0.200000 0
5.100000 0.200000 0
5.200000 0.200000 0
5.300000 0.200000 0
5.400000 0.200000 0
5.500000 0.200000 0
5.600000 0.200000 0
5.700000 0.200000 0
5.800000 0.200000 0
5.900000 0.200000 0
6.000000 0.200000 0
6.100000 0.200000 0
6.200000 0.200000 0
6.300000 0.200000 0
6.400000 0.200000 0
6.500000 0.200000 0
6.600000 0.200000 0
6.700000 0.200000 0
6.800000 0.200000 0
6.900000 0.200000 0
7.000000 0.200000 0
7.100000 0.200000 0
7.200000 0.200000 0
7.300000 0.200000 0
7.400000 0.200000 0
7.500000 0.200000 0
7.600000 0.200000 0
7.700000 0.200000 0
7.800000 0.200000 0
7.900000 0.200000 0
8.000000 0.200000 0
8.100000 0.200000 0
8.200000 0.200000 0
8.300000 0.200000 0
8.400000 0.200000 0
8.500000 0.200000 0
8.600000 0.200000 0
8.700000 0.200000 0
8.800000 0.200000 0
8.900000 0.200000 0
9.000000 0.200000 0
9.100000 0.200000 0
9.200000 0.200000 0
9.300000 0.200000 0
9.400000 0.200000 0
9.500000 0.200000 0
9.600000 0.200000 0
9.700000 0.200000 0
9.800000 0.200000 0
9.900000 0.200000 0
10.000000 0.200000 0
0.000000 0.300000 0
0.100000 0.300000 0
0.200000 0.300000 0
0.300000 0.300000 0
0.400000 0.300000 0
0.500000 0.300000 0
0.600000 0.300000 0
0.700000 0.300000 0
0.800000 0.300000 0
0.900000 0.300000 0
1.000000 0.300000 0
1.100000 0.300000 0
1.200000 0.300000 0
1.300000 0.300000 0
1.400000 0.300000 0
1.500000 0.300000 0
1.600000 0.300000 0
1.700000 0.300000 0
1.800000 0.300000 0
1.900000 0.300000 0
2.000000 0.300000 0
2.100000 0.300000 0
2.200000 0.300000 0
2.300000 0.300000 0
2.400000 0.300000 0
2.500000 0.300000 0
2.600000 0.300000 0
2.700000 0.300000 0
2.800000 0.300000 0
2.900000 0.300000 0
3.000000 0.300000 0
3.100000 0.300000 0
3.200000 0.300000 0
3.300000 0.300000 0
3.400000 0.300000 0
3.500000 0.300000 0
3.600000 0.300000 0
3.700000 0.300000 0
3.800000 0.300000 0
3.900000 0.300000 0
4.000000 0.300000 0
4.100000 0.300000 0
4.200000 0.300000 0
4.300000 0.300000 0
4.400000 0.300000 0
4.500000 0.300000 0
4.600000 0.300000 0
4.700000 0.300000 0
4.800000 0.300000 0
4.900000 0.300000 0
5.000000 0.300000 0
5.100000 0.300000 0
5.200000 0.300000 0
5.300000 0.300000 0
5.400000 0.300000 0
5.500000 0.300000 0
5.600000 0.300000 0
5.700000 0.300000 0
5.800000 0.300000 0
5.900000 0.300000 0
6.000000 0.300000 0
6.100000 0.300000 0
6.200000 0.300000 0
6.300000 0.300000 0
6.400000 0.300000 0
6.500000 0.300000 0
6.600000 0.300000 0
6.700000 0.300000 0
6.800000 0.300000 0
6.900000 0.300000 0
7.000000 0.300000 0
7.100000 0.300000 0
7.200000 0.300000 0
7.300000 0.300000 0
7.400000 0.300000 0
7.500000 0.300000 0
7.600000 0.300000 0
7.700000 0.300000 0
7.800000 0.300000 0
7.900000 0.300000 0
8.000000 0.300000 0
8.100000 0.300000 0
8.200000 0.300000 0
8.300000 0.300000 0
8.400000 0.300000 0
8.500000 0.300000 0
8.600000 0.300000 0
8.700000 0.300000 0
8.800000 0.300000 0
8.900000 0.300000 0
9.000000 0.300000 0
9.100000 0.300000 0
9.200000 0.300000 0
9.300000 0.300000 0
9.400000 0.300000 0
9.500000 0.300000 0
9.600000 0.300000 0
9.700000 0.300000 0
9.800000 0.300000 0
9.900000 0.300000 0
10.000000 0.300000 0
0.000000 0.400000 0
0.100000 0.400000 0
0.200000 0.400000 0
0.300000 0.400000 0
0.400000 0.400000 0
0.500000 0.400000 0
0.600000 0.400000 0
0.700000 0.400000 0
0.800000 0.400000 0
0.900000 0.400000 0
1.000000 0.400000 0
1.100000 0.400000 0
1.200000 0.400000 0
1.300000 0.400000 0
1.400000 0.400000 0
1.500000 0.400000 0
1.600000 0.400000 0
1.700000 0.400000 0
1.800000 0.400000 0
1.900000 0.400000 0
2.000000 0.400000 0
2.100000 0.400000 0
2.200000 0.400000 0
2.300000 0.400000 0
2.400000 0.400000 0
2.500000 0.400000 0
2.600000 0.400000 0
2.700000 0.400000 0
2.800000 0.400000 0
2.900000 0.400000 0
3.000000 0.400000 0
3.100000 0.400000 0
3.200000 0.400000 0
3.300000 0.400000 0
3.400000 0.400000 0
3.500000 0.400000 0
3.600000 0.400000 0
3.700000 0.400000 0
3.800000 0.400000 0
3.900000 0.400000 0
4.000000 0.400000 0
4.100000 0.400000 0
4.200000 0.400000 0
4.300000 0.400000 0
4.400000 0.400000 0
4.500000 0.400000 0
4.600000 0.400000 0
4.700000 0.400000 0
4.800000 0.400000 0
4.900000 0.400000 0
5.000000 0.400000 0
5.100000 0.400000 0
5.200000 0.400000 0
5.300000 0.400000 0
5.400000 0.400000 0
5.500000 0.400000 0
5.600000 0.400000 0
5.700000 0.400000 0
5.800000 0.400000 0
5.900000 0.400000 0
6.000000 0.400000 0
6.100000 0.400000 0
6.200000 0.400000 0
6.300000 0.400000 0
6.400000 0.400000 0
6.500000 0.400000 0
6.600000 0.400000 0
6.700000 0.400000 0
6.800000 0.400000 0
6.900000 0.400000 0
7.000000 0.400000 0
7.100000 0.400000 0
7.200000 0.400000 0
7.300000 0.400000 0
7.400000 0.400000 0
7.500000 0.400000 0
7.600000 0.400000 0
7.700000 0.400000 0
7.800000 0.400000 0
7.900000 0.400000 0
8.000000 0.400000 0
8.100000 0.400000 0
8.200000 0.400000 0
8.300000 0.400000 0
8.400000 0.400000 0
8.500000 0.400000 0
8.600000 0.400000 0
[...]
POINT_DATA 2121 

VECTORS velocity float
0.500000 0.000000 0
0.000003 0.000000 0
-0.000019 0.000000 0
-0.000060 0.000000 0
-0.000127 0.000000 0
-0.000228 0.000000 0
-0.000368 0.000000 0
-0.000545 0.000000 0
-0.000752 0.000000 0
-0.000948 0.000000 0
-0.001050 0.000000 0
-0.000977 0.000000 0
-0.000663 0.000000 0
-0.000087 0.000000 0
0.000748 0.000000 0
0.001748 0.000000 0
0.002748 0.000000 0
0.003616 0.000000 0
0.004296 0.000000 0
0.004784 0.000000 0
0.004830 0.000000 0
0.004254 0.000000 0
0.007758 0.000000 0
0.001970 0.000000 0
-0.000728 0.000000 0
0.030832 0.000000 0
0.026154 0.000000 0
-0.031844 0.000000 0
-0.032097 0.000000 0
-0.017192 0.000000 0
-0.012633 0.000000 0
-0.011660 0.000000 0
-0.004422 0.000000 0
0.000512 0.000000 0
0.005733 0.000000 0
0.008672 0.000000 0
0.009206 0.000000 0
0.018409 0.000000 0
0.030282 0.000000 0
0.017478 0.000000 0
0.006091 0.000000 0
-0.004789 0.000000 0
-0.008632 0.000000 0
-0.004918 0.000000 0
0.003013 0.000000 0
0.005949 0.000000 0
0.005295 0.000000 0
0.003267 0.000000 0
0.000503 0.000000 0
-0.003011 0.000000 0
-0.006527 0.000000 0
-0.008362 0.000000 0
-0.008200 0.000000 0
-0.006637 0.000000 0
-0.004965 0.000000 0
-0.003879 0.000000 0
-0.003617 0.000000 0
-0.004068 0.000000 0
-0.005022 0.000000 0
-0.006181 0.000000 0
-0.007020 0.000000 0
-0.007367 0.000000 0
-0.007470 0.000000 0
-0.010050 0.000000 0
-0.012165 0.000000 0
-0.013812 0.000000 0
-0.015117 0.000000 0
-0.015770 0.000000 0
-0.015753 0.000000 0
-0.015032 0.000000 0
-0.013078 0.000000 0
-0.009360 0.000000 0
-0.004236 0.000000 0
0.002486 0.000000 0
0.009824 0.000000 0
0.014073 0.000000 0
0.019165 0.000000 0
0.042114 0.000000 0
0.051949 0.000000 0
0.021512 0.000000 0
0.008639 0.000000 0
0.001374 0.000000 0
-0.008942 0.000000 0
-0.013841 0.000000 0
-0.007834 0.000000 0
-0.001382 0.000000 0
-0.000297 0.000000 0
-0.000141 0.000000 0
0.003791 0.000000 0
0.009189 0.000000 0
0.009345 0.000000 0
0.006383 0.000000 0
0.003483 0.000000 0
0.001443 0.000000 0
0.000056 0.000000 0
-0.000951 0.000000 0
-0.001807 0.000000 0
-0.002539 0.000000 0
-0.003223 0.000000 0
-0.003607 0.000000 0
-0.003849 0.000000 0
1.000000 -0.002823 0
1.006186 -0.009000 0
1.019248 -0.016123 0
1.040000 -0.023944 0
1.069162 -0.032037 0
1.106956 -0.039557 0
1.152426 -0.045236 0
1.203090 -0.047560 0
1.253618 -0.046126 0
1.300255 -0.042086 0
1.341482 -0.036648 0
1.376683 -0.030355 0
1.405534 -0.022974 0
1.426948 -0.013513 0
1.438038 -0.000818 0
1.434104 0.015113 0
1.411587 0.032411 0
1.370822 0.048570 0
1.314426 0.061892 0
1.246822 0.070941 0
1.171546 0.071532 0
1.088980 0.076536 0
1.018007 0.108102 0
0.986733 0.034579 0
0.881249 -0.027653 0
0.591888 0.223899 0
0.205312 0.261628 0
0.191996 -0.130774 0
0.506365 -0.307168 0
0.769416 -0.216344 0
0.991784 -0.148141 0
1.170580 -0.109205 0
1.275631 -0.055237 0
1.327648 0.001630 0
1.336905 0.053141 0
1.295871 0.087501 0
1.214058 0.117512 0
1.087015 0.230225 0
0.902919 0.323306 0
0.718127 0.244394 0
0.587003 0.097666 0
0.577404 -0.027263 0
0.617220 -0.091960 0
0.565672 -0.061440 0
0.471075 0.010998 0
0.387719 0.050976 0
0.329358 0.049058 0
0.290070 0.030007 0
0.268530 -0.001391 0
0.271402 -0.046196 0
0.312154 -0.091545 0
0.393866 -0.112552 0
0.494160 -0.101813 0
0.587311 -0.073759 0
0.657069 -0.044464 0
0.704565 -0.024467 0
0.736732 -0.016202 0
0.761889 -0.017117 0
0.786045 -0.024523 0
0.812441 -0.034626 0
0.845042 -0.042761 0
0.887620 -0.047798 0
0.942541 -0.052761 0
1.005972 -0.064978 0
1.074962 -0.079352 0
1.152621 -0.089467 0
1.241351 -0.096713 0
1.334287 -0.099571 0
1.426774 -0.098564 0
1.517174 -0.093489 0
1.603000 -0.081445 0
1.675678 -0.058836 0
1.723280 -0.024143 0
1.735380 0.023218 0
1.701769 0.076171 0
1.624557 0.115569 0
1.506332 0.174586 0
1.311057 0.353082 0
1.029283 0.424774 0
0.789261 0.225515 0
0.599244 0.059590 0
0.464692 -0.002138 0
0.436834 -0.080321 0
0.519380 -0.125037 0
0.659982 -0.083932 0
0.751341 -0.016698 0
0.773946 0.011269 0
0.729153 0.026522 0
0.624405 0.073352 0
0.477591 0.125823 0
0.338855 0.129941 0
0.242826 0.092663 0
0.187714 0.052897 0
0.159193 0.025836 0
0.145188 0.009427 0
0.140975 0.000016 0
0.141733 -0.007865 0
0.151175 -0.013101 0
0.161862 -0.017509 0
0.183728 -0.014344 0
0.190956 -0.007443 0
1.000000 -0.006175 0
1.006138 -0.019233 0
1.019391 -0.033805 0
1.040672 -0.049905 0
1.071271 -0.066949 0
1.112305 -0.083259 0
1.163403 -0.096130 0
1.223525 -0.101188 0
1.281611 -0.097163 0
1.332622 -0.087863 0
1.376752 -0.076427 0
1.414260 -0.064053 0
1.446350 -0.050267 0
1.473349 -0.032506 0
1.492400 -0.007159 0
1.494923 0.026447 0
1.473076 0.063278 0
1.429390 0.097156 0
1.368641 0.123994 0
1.295228 0.142875 0
1.211877 0.157836 0
1.120305 0.153533 0
1.014391 0.102241 0
0.949167 0.136752 0
0.812063 0.394839 0
0.676967 0.675931 0
0.900559 0.399885 0
0.821227 -0.301059 0
0.349769 -0.577426 0
0.265920 -0.485425 0
0.440581 -0.401171 0
0.716367 -0.283853 0
0.949466 -0.157073 0
1.097192 -0.061279 0
1.162622 0.031772 0
1.180265 0.122842 0
1.161239 0.208852 0
1.109298 0.311136 0
1.102271 0.368885 0
1.087923 0.315913 0
1.026884 0.140721 0
0.961277 -0.030219 0
0.915323 0.011730 0
0.772215 0.146144 0
0.596967 0.177951 0
0.477636 0.141716 0
0.408620 0.097648 0
0.384194 0.060826 0
0.383187 0.018666 0
0.359187 -0.043626 0
0.318757 -0.122467 0
0.309455 -0.182009 0
0.347783 -0.193449 0
0.422000 -0.162913 0
0.506734 -0.117260 0
0.578206 -0.079670 0
0.633777 -0.057332 0
0.673938 -0.049321 0
0.703353 -0.050561 0
0.722795 -0.059009 0
0.735677 -0.075191 0
0.758126 -0.097511 0
0.803333 -0.118365 0
0.874125 -0.132435 0
0.957826 -0.146663 0
1.043016 -0.166404 0
1.120435 -0.181682 0
1.198137 -0.185437 0
1.272310 -0.182902 0
1.342541 -0.176241 0
1.409479 -0.158518 0
1.472589 -0.120294 0
1.522975 -0.059716 0
1.550840 0.021499 0
1.549692 0.110812 0
1.516927 0.195426 0
1.438370 0.313491 0
1.329568 0.477041 0
1.294798 0.521790 0
1.213049 0.430035 0
1.043794 0.324565 0
0.931989 0.162408 0
0.877335 -0.054688 0
0.820220 -0.223147 0
0.772081 -0.231958 0
0.773867 -0.113960 0
0.773908 0.022193 0
0.705976 0.149548 0
0.571959 0.251571 0
0.431417 0.285559 0
0.341587 0.234775 0
0.294738 0.151153 0
0.270121 0.083646 0
0.254472 0.042539 0
0.242126 0.018232 0
0.233238 0.003468 0
0.227336 -0.010186 0
0.225038 -0.020114 0
0.223720 -0.032539 0
0.240404 -0.029080 0
0.247436 -0.014918 0
1.000000 -0.008953 0
1.004260 -0.028382 0
1.016126 -0.050654 0
1.036143 -0.075821 0
1.066784 -0.103668 0
1.110969 -0.131688 0
1.169343 -0.156454 0
1.251028 -0.165768 0
1.322624 -0.155223 0
1.377285 -0.137227 0
1.422747 -0.118287 0
1.458792 -0.099954 0
1.489148 -0.082065 0
1.521447 -0.059565 0
1.553833 -0.022394 0
1.570185 0.034436 0
1.554223 0.097942 0
1.502094 0.153003 0
1.427622 0.196052 0
1.345668 0.227704 0
1.264948 0.246453 0
1.187970 0.274019 0
1.080614 0.279236 0
0.907088 0.236905 0
0.924874 0.244545 0
1.089262 0.135400 0
1.122036 0.117365 0
0.740479 0.420014 0
0.178084 0.248137 0
-0.086356 -0.307158 0
-0.090915 -0.598591 0
0.128745 -0.618091 0
0.459426 -0.436064 0
0.732037 -0.211528 0
0.897182 -0.029933 0
0.992927 0.088883 0
1.038468 0.188477 0
1.060898 0.289193 0
1.105781 0.344680 0
1.144420 0.319780 0
1.141490 0.224311 0
1.055630 0.084297 0
0.895747 0.097102 0
0.760557 0.256916 0
0.686355 0.305577 0
0.621488 0.239322 0
0.523372 0.142499 0
0.470606 0.055438 0
0.529492 0.023616 0
0.575948 0.018233 0
0.522208 -0.041815 0
0.396671 -0.141579 0
0.327037 -0.214361 0
0.344006 -0.232714 0
0.411615 -0.200673 0
0.488754 -0.151514 0
0.559586 -0.111939 0
0.612389 -0.086696 0
0.652958 -0.073385 0
0.686803 -0.066956 0
0.707403 -0.078097 0
0.722472 -0.115460 0
0.735917 -0.168766 0
0.764215 -0.219477 0
0.832241 -0.248249 0
0.927474 -0.252082 0
1.014849 -0.251840 0
1.079358 -0.251452 0
1.134276 -0.242975 0
1.181906 -0.230664 0
1.221010 -0.211499 0
1.261907 -0.172338 0
1.303799 -0.102399 0
1.339572 -0.003503 0
1.357752 0.110080 0
1.353800 0.226888 0
1.329762 0.361942 0
1.319564 0.496651 0
1.353043 0.541291 0
1.347319 0.476517 0
1.328125 0.340649 0
1.309277 0.164321 0
1.239269 0.031448 0
1.065559 -0.019783 0
0.783198 -0.037578 0
0.629906 -0.018523 0
0.587430 0.079162 0
0.550276 0.228474 0
0.481566 0.347914 0
0.426589 0.356198 0
0.407402 0.266624 0
0.398961 0.164133 0
0.384012 0.093168 0
0.363663 0.053834 0
0.345343 0.030665 0
0.333035 0.014811 0
0.329112 0.000339 0
0.326669 -0.009481 0
0.323263 -0.032871 0
0.320782 -0.038056 0
0.326569 -0.021970 0
1.000000 -0.010428 0
1.001770 -0.035350 0
1.009753 -0.065684 0
1.025397 -0.100561 0
1.054811 -0.141774 0
1.100764 -0.185815 0
1.165885 -0.236187 0
1.302272 -0.254469 0
1.392379 -0.223420 0
1.439277 -0.187986 0
1.474341 -0.157935 0
1.498395 -0.130455 0
1.513240 -0.112923 0
1.543703 -0.097193 0
1.597819 -0.055899 0
1.645965 0.026055 0
1.656137 0.131367 0
1.607881 0.223756 0
1.510567 0.280418 0
1.390947 0.305546 0
1.274498 0.315532 0
1.175145 0.337865 0
1.101395 0.383120 0
1.002094 0.292490 0
0.935559 0.212663 0
0.775689 0.478766 0
0.307494 0.748666 0
0.125935 0.642890 0
0.289268 0.249407 0
0.188750 -0.216428 0
-0.010511 -0.616274 0
-0.078644 -0.834196 0
0.081635 -0.760366 0
0.357849 -0.499037 0
0.610388 -0.229120 0
0.785900 -0.018444 0
0.892451 0.140881 0
0.965364 0.243821 0
1.031042 0.285362 0
1.082626 0.280203 0
1.109629 0.229510 0
1.094338 0.215524 0
0.899744 0.306803 0
0.742676 0.355535 0
0.689341 0.317019 0
0.639134 0.304698 0
0.527879 0.248529 0
0.449281 0.054705 0
0.527693 -0.086677 0
0.640324 -0.036343 0
0.584890 0.056808 0
0.437761 0.013160 0
0.398003 -0.140787 0
0.424630 -0.247495 0
0.460140 -0.262011 0
0.504971 -0.227645 0
0.560457 -0.180971 0
0.618770 -0.142698 0
0.675192 -0.124980 0
0.740972 -0.113459 0
0.822555 -0.110866 0
0.890975 -0.126031 0
0.930135 -0.160115 0
0.930902 -0.228765 0
0.897269 -0.309928 0
0.880105 -0.349018 0
0.933830 -0.333572 0
1.000384 -0.304871 0
1.046569 -0.285455 0
1.082572 -0.262980 0
1.096133 -0.238525 0
1.094236 -0.203089 0
1.102097 -0.137386 0
1.141536 -0.032459 0
1.168065 0.096581 0
1.167884 0.223413 0
1.182060 0.347723 0
1.231112 0.453757 0
1.307434 0.494033 0
1.361297 0.454950 0
1.376933 0.362606 0
1.331240 0.251264 0
1.216826 0.189030 0
1.060303 0.232924 0
0.885898 0.203696 0
0.709868 0.081809 0
0.618493 0.101824 0
0.576704 0.255414 0
0.527245 0.375260 0
0.503407 0.359725 0
0.497201 0.262406 0
0.488774 0.174545 0
0.472380 0.118947 0
0.454669 0.081212 0
0.442096 0.048863 0
0.436265 0.019703 0
0.440670 -0.003816 0
0.457927 -0.014261 0
0.480985 -0.026648 0
0.481118 -0.032382 0
0.486908 -0.026889 0
1.000000 -0.010715 0
1.000751 -0.038125 0
1.005566 -0.074277 0
1.005741 -0.120876 0
1.031205 -0.179033 0
1.071019 -0.242761 0
1.142435 -0.357961 0
1.390961 -0.392260 0
1.465841 -0.292228 0
1.459123 -0.219190 0
1.458409 -0.177406 0
1.452290 -0.138855 0
1.419731 -0.127375 0
1.414862 -0.144146 0
1.480806 -0.124657 0
1.584488 -0.023884 0
1.658099 0.136024 0
1.661724 0.298570 0
1.599730 0.412985 0
1.495402 0.463771 0
1.362972 0.462252 0
1.222658 0.447119 0
1.113495 0.452285 0
1.074152 0.402738 0
0.942446 0.470947 0
0.576531 0.763463 0
0.477616 0.767117 0
0.642874 0.438237 0
0.829961 0.185320 0
0.886216 -0.007381 0
0.767112 -0.331199 0
0.386701 -0.710239 0
0.133761 -0.872559 0
0.174243 -0.740283 0
0.367030 -0.457986 0
0.563631 -0.193181 0
0.723194 0.009012 0
0.855057 0.150601 0
0.949941 0.227417 0
1.008779 0.241192 0
1.046582 0.212598 0
1.008710 0.294182 0
0.924238 0.448764 0
0.875707 0.467318 0
0.812919 0.409118 0
0.747368 0.400783 0
0.730050 0.332350 0
0.736298 0.055623 0
0.680891 -0.167429 0
0.578174 -0.038967 0
0.421590 0.160747 0
0.383537 0.045306 0
0.474616 -0.201233 0
0.612757 -0.294855 0
0.690684 -0.281017 0
0.704905 -0.251834 0
0.696600 -0.225742 0
0.713137 -0.201436 0
0.765512 -0.195592 0
0.840379 -0.214324 0
0.925663 -0.228106 0
1.003031 -0.223045 0
1.067693 -0.208699 0
1.109176 -0.186618 0
1.098993 -0.197458 0
1.035462 -0.288649 0
0.963201 -0.372126 0
0.949226 -0.364198 0
1.000514 -0.325169 0
1.051156 -0.280234 0
1.047024 -0.223169 0
1.073020 -0.178307 0
0.981744 -0.149704 0
0.907765 -0.069476 0
0.937324 0.083728 0
1.000297 0.212888 0
1.050050 0.298709 0
1.118577 0.371273 0
1.211633 0.411103 0
1.287479 0.407017 0
1.320201 0.370704 0
1.297883 0.324426 0
1.221460 0.302384 0
1.135108 0.311145 0
1.098859 0.312857 0
1.005224 0.248883 0
0.899170 0.212327 0
0.730619 0.319723 0
0.610171 0.421212 0
0.566859 0.386243 0
0.562975 0.281258 0
0.571874 0.188956 0
0.580807 0.127276 0
0.595668 0.084121 0
0.605740 0.049071 0
0.612061 0.016239 0
0.613543 -0.021321 0
0.612987 -0.049793 0
0.624700 -0.056059 0
0.644723 -0.043977 0
0.651982 -0.033797 0
1.000000 -0.011171 0
0.998589 -0.040905 0
1.002409 -0.070672 0
0.988678 -0.126197 0
1.000933 -0.207048 0
1.007898 -0.297044 0
1.099317 -0.556128 0
1.417587 -0.577874 0
1.325032 -0.291582 0
1.204839 -0.180555 0
1.103043 -0.151103 0
1.132460 -0.091778 0
0.991624 -0.075497 0
0.824062 -0.158270 0
0.863383 -0.225526 0
1.135644 -0.151240 0
1.350255 0.054129 0
1.425041 0.282123 0
1.431067 0.446738 0
1.422390 0.542301 0
1.386347 0.588274 0
1.308863 0.587339 0
1.225948 0.531624 0
1.187011 0.463537 0
1.020653 0.710282 0
0.842187 0.943594 0
0.940512 0.682320 0
1.061392 0.290543 0
1.116031 0.006062 0
1.181680 -0.153581 0
1.215769 -0.116760 0
1.001247 -0.200847 0
0.580478 -0.547910 0
0.276145 -0.732308 0
0.263479 -0.618510 0
0.408679 -0.374609 0
0.571193 -0.150545 0
0.727696 0.017074 0
0.854277 0.131639 0
0.939318 0.183561 0
0.973475 0.229578 0
0.940359 0.337868 0
0.967216 0.439806 0
1.019897 0.466854 0
1.029427 0.445357 0
1.026015 0.387566 0
1.078009 0.259599 0
1.109747 0.103863 0
0.978372 0.071445 0
0.735769 0.222956 0
0.572128 0.251444 0
0.544072 -0.039868 0
0.588122 -0.370010 0
0.713960 -0.463566 0
0.817121 -0.354163 0
0.862285 -0.233564 0
0.869701 -0.189208 0
0.875270 -0.211615 0
0.900322 -0.252226 0
0.936421 -0.273616 0
0.965965 -0.273524 0
0.995598 -0.268066 0
1.031254 -0.266266 0
1.079576 -0.260071 0
1.146137 -0.236220 0
1.188556 -0.213233 0
1.146964 -0.247343 0
1.074283 -0.342190 0
1.052501 -0.387392 0
1.148664 -0.309497 0
1.089633 -0.260395 0
0.815332 -0.137815 0
0.599890 0.027863 0
0.515222 0.011957 0
0.577941 0.004044 0
0.743536 0.110681 0
0.921721 0.229438 0
1.055099 0.292171 0
1.144489 0.325127 0
1.222327 0.346380 0
1.265500 0.352200 0
1.270761 0.350002 0
1.243236 0.351803 0
1.206620 0.355524 0
1.172796 0.333579 0
1.130852 0.281498 0
0.986433 0.376429 0
0.795889 0.544413 0
0.715045 0.539020 0
0.718914 0.406922 0
0.761140 0.257392 0
0.807683 0.156714 0
0.838937 0.095155 0
0.835608 0.056280 0
0.809106 0.032471 0
0.781794 0.011902 0
0.770367 -0.004740 0
0.757912 -0.025416 0
0.748689 -0.058382 0
0.752539 -0.059663 0
0.756966 -0.041828 0
1.000000 -0.009296 0
0.998811 -0.040524 0
0.987949 -0.064363 0
0.980714 -0.119398 0
0.967001 -0.198251 0
0.911885 -0.341143 0
1.006669 -0.767648 0
0.694547 -0.538493 0
-0.001319 0.000000 0
-0.000799 0.000000 0
0.393672 -0.107826 0
0.328413 -0.027437 0
0.060936 0.181021 0
0.111550 -0.015907 0
0.155805 -0.436240 0
0.376074 -0.510757 0
0.669771 -0.153376 0
0.850076 0.217756 0
0.975512 0.415634 0
1.102299 0.508488 0
1.167394 0.575776 0
1.183056 0.607516 0
1.166527 0.574135 0
1.086536 0.608030 0
0.943706 0.815768 0
1.071836 0.843602 0
1.252962 0.547910 0
1.275148 0.262716 0
1.171287 0.065029 0
0.970748 -0.107122 0
0.807731 -0.150768 0
0.818785 -0.074950 0
0.725044 -0.147458 0
0.492949 -0.423285 0
0.329321 -0.590520 0
0.350728 -0.500897 0
0.476166 -0.310007 0
0.627724 -0.132484 0
0.766497 0.015795 0
0.869099 0.121994 0
0.914858 0.211556 0
0.948984 0.300441 0
1.025433 0.369225 0
1.110267 0.405107 0
1.176163 0.403000 0
1.227134 0.352200 0
1.262626 0.248617 0
1.241938 0.155260 0
1.151928 0.206548 0
1.036601 0.367275 0
1.000905 0.352442 0
0.960240 0.029310 0
0.857750 -0.371123 0
0.708333 -0.523857 0
0.606117 -0.429346 0
0.609950 -0.304418 0
0.672860 -0.238731 0
0.746258 -0.232062 0
0.812049 -0.256747 0
0.871496 -0.279973 0
0.929989 -0.287289 0
0.980505 -0.288341 0
1.023159 -0.292683 0
1.070328 -0.301507 0
1.137253 -0.306445 0
1.234543 -0.289483 0
1.319208 -0.257860 0
1.310048 -0.269742 0
1.187097 -0.399556 0
1.028945 -0.317372 0
0.817223 0.110158 0
0.486321 0.311430 0
0.351577 0.150401 0
0.313289 -0.047532 0
0.299151 -0.144591 0
0.384711 -0.130897 0
0.610240 -0.012859 0
0.857229 0.148501 0
1.035761 0.243872 0
1.139510 0.286003 0
1.187851 0.322268 0
1.206500 0.346687 0
1.198963 0.366522 0
1.180260 0.381584 0
1.150714 0.388623 0
1.084430 0.435244 0
0.956036 0.547290 0
0.933552 0.591110 0
0.989160 0.498186 0
1.057769 0.340148 0
1.097990 0.192489 0
1.099686 0.111160 0
1.073851 0.099352 0
1.021312 0.113952 0
0.968041 0.102885 0
0.927781 0.054979 0
0.907042 0.002562 0
0.897936 -0.028114 0
0.889773 -0.050685 0
0.867662 -0.052254 0
0.867336 -0.043160 0
1.000000 -0.009974 0
1.009115 -0.028845 0
0.968295 -0.052571 0
0.976942 -0.105246 0
0.900086 -0.138216 0
0.872348 -0.336710 0
0.678974 -0.418268 0
0.000000 0.005175 0
-0.578345 0.153404 0
-0.483245 0.000000 0
0.000000 0.000000 0
-0.107958 0.240825 0
-0.027720 0.141363 0
-0.104626 -0.253140 0
-0.126600 -0.490052 0
-0.216589 -0.665208 0
-0.166236 -0.419874 0
0.094496 -0.023619 0
0.349936 0.194512 0
0.698224 0.350417 0
0.898565 0.507515 0
1.003945 0.588204 0
1.027928 0.628142 0
0.976911 0.686356 0
1.003031 0.724979 0
1.197915 0.634334 0
1.251211 0.479005 0
1.066836 0.372217 0
0.812924 0.310461 0
0.535441 0.209972 0
0.328570 0.035201 0
0.303436 -0.118161 0
0.443902 -0.222075 0
0.534420 -0.336586 0
0.480335 -0.476290 0
0.426401 -0.521455 0
0.473089 -0.427543 0
0.580788 -0.273258 0
0.705026 -0.109736 0
0.811868 0.035199 0
0.889759 0.149692 0
0.964786 0.227293 0
1.055782 0.278522 0
1.152190 0.316124 0
1.240049 0.328489 0
1.311432 0.301102 0
1.350385 0.244794 0
1.330801 0.214559 0
1.263244 0.276781 0
1.230984 0.373978 0
1.264599 0.327803 0
1.257108 0.103283 0
1.025195 -0.118106 0
0.584237 -0.211935 0
0.314956 -0.255783 0
0.243839 -0.300311 0
0.280060 -0.325521 0
0.368309 -0.350808 0
0.489422 -0.377470 0
0.615903 -0.391562 0
0.737261 -0.382538 0
0.843487 -0.361243 0
0.918914 -0.356096 0
0.975314 -0.374172 0
1.042886 -0.400442 0
1.139917 -0.395195 0
1.231792 -0.322853 0
1.274286 -0.210085 0
1.209609 -0.106295 0
0.806353 0.060370 0
0.495832 0.282223 0
0.440982 0.327825 0
0.443220 0.200888 0
0.416765 0.064378 0
0.284425 -0.067383 0
0.178958 -0.200413 0
0.262582 -0.243084 0
0.519427 -0.133355 0
0.770992 0.042842 0
0.925511 0.194286 0
1.008705 0.285206 0
1.052100 0.338888 0
1.076655 0.378040 0
1.087206 0.403770 0
1.089663 0.429408 0
1.062927 0.476175 0
1.048783 0.527305 0
1.104426 0.511287 0
1.174041 0.414803 0
1.216941 0.298092 0
1.208336 0.215473 0
1.163261 0.180853 0
1.109874 0.173530 0
1.078256 0.162091 0
1.068201 0.126002 0
1.063897 0.072901 0
1.047970 0.025105 0
1.027855 -0.008148 0
1.009662 -0.028108 0
0.988723 -0.037225 0
0.986917 -0.041504 0
1.000000 -0.018403 0
0.983650 -0.008809 0
0.977297 -0.032187 0
0.948474 -0.051185 0
0.873195 -0.093654 0
0.846288 -0.120028 0
0.488701 0.027753 0
0.384916 0.063532 0
0.000000 0.000000 0
0.000000 0.000000 0
0.000000 0.000000 0
0.000000 0.000000 0
0.240675 0.177538 0
0.131231 0.082971 0
-0.339744 -0.324278 0
-0.587660 -0.471123 0
-0.815244 -0.464463 0
-0.663717 -0.298417 0
-0.248551 -0.188096 0
0.272327 -0.040143 0
0.617435 0.270054 0
0.817790 0.478151 0
0.901702 0.601166 0
0.977165 0.632924 0
1.089629 0.594762 0
1.139945 0.595420 0
0.978973 0.678987 0
0.771347 0.701001 0
0.569054 0.596422 0
0.429480 0.377230 0
0.357878 0.081235 0
0.321736 -0.190283 0
0.344212 -0.378444 0
0.431938 -0.459719 0
0.513193 -0.482503 0
0.534351 -0.493652 0
0.557015 -0.464395 0
0.611143 -0.364422 0
0.694713 -0.215285 0
0.786233 -0.062739 0
0.878278 0.058638 0
0.972414 0.134417 0
1.068325 0.181821 0
1.161914 0.220839 0
1.250076 0.243758 0
1.321450 0.241863 0
1.359333 0.229246 0
1.353024 0.242400 0
1.323218 0.306364 0
1.320911 0.365918 0
1.342538 0.326315 0
1.302360 0.268712 0
1.142884 0.301746 0
0.952171 0.186378 0
0.820469 -0.088952 0
0.670229 -0.269526 0
0.523184 -0.363206 0
0.459480 -0.441429 0
0.476903 -0.504346 0
0.522211 -0.527816 0
0.579341 -0.514879 0
0.662036 -0.470000 0