# vtk DataFile Version 2.0
generated by CFD-lab course output (written by Tobias Neckel) 
ASCII

DATASET STRUCTURED_GRID
DIMENSIONS  101 21 1 
POINTS 2121 float

0.000000 0.000000 0
0.100000 0.000000 0
0.200000 0.000000 0
0.300000 0.000000 0
0.400000 0.000000 0
0.500000 0.000000 0
0.600000 0.000000 0
0.700000 0.000000 0
0.800000 0.000000 0
0.900000 0.000000 0
1.000000 0.000000 0
1.100000 0.000000 0
1.200000 0.000000 0
1.300000 0.000000 0
1.400000 0.000000 0
1.500000 0.000000 0
1.600000 0.000000 0
1.700000 0.000000 0
1.800000 0.000000 0
1.900000 0.000000 0
2.000000 0.000000 0
2.100000 0.000000 0
2.200000 0.000000 0
2.300000 0.000000 0
2.400000 0.000000 0
2.500000 0.000000 0
2.600000 0.000000 0
2.700000 0.000000 0
2.800000 0.000000 0
2.900000 0.000000 0
3.000000 0.000000 0
3.100000 0.000000 0
3.200000 0.000000 0
3.300000 0.000000 0
3.400000 0.000000 0
3.500000 0.000000 0
3.600000 0.000000 0
3.700000 0.000000 0
3.800000 0.000000 0
3.900000 0.000000 0
4.000000 0.000000 0
4.100000 0.000000 0
4.200000 0.000000 0
4.300000 0.000000 0
4.400000 0.000000 0
4.500000 0.000000 0
4.600000 0.000000 0
4.700000 0.000000 0
4.800000 0.000000 0
4.900000 0.000000 0
5.000000 0.000000 0
5.100000 0.000000 0
5.200000 0.000000 0
5.300000 0.000000 0
5.400000 0.000000 0
5.500000 0.000000 0
5.600000 0.000000 0
5.700000 0.000000 0
5.800000 0.000000 0
5.900000 0.000000 0
6.000000 0.000000 0
6.100000 0.000000 0
6.200000 0.000000 0
6.300000 0.000000 0
6.400000 0.000000 0
6.500000 0.000000 0
6.600000 0.000000 0
6.700000 0.000000 0
6.800000 0.000000 0
6.900000 0.000000 0
7.000000 0.000000 0
7.100000 0.000000 0
7.200000 0.000000 0
7.300000 0.000000 0
7.400000 0.000000 0
7.500000 0.000000 0
7.600000 0.000000 0
7.700000 0.000000 0
7.800000 0.000000 0
7.900000 0.000000 0
8.000000 0.000000 0
8.100000 0.000000 0
8.200000 0.000000 0
8.300000 0.000000 0
8.400000 0.000000 0
8.500000 0.000000 0
8.600000 0.000000 0
8.700000 0.000000 0
8.800000 0.000000 0
8.900000 0.000000 0
9.000000 0.000000 0
9.100000 0.000000 0
9.200000 0.000000 0
9.300000 0.000000 0
9.400000 0.000000 0
9.500000 0.000000 0
9.600000 0.000000 0
9.700000 0.000000 0
9.800000 0.000000 0
9.900000 0.000000 0
10.000000 0.000000 0
0.000000 0.100000 0
0.100000 0.100000 0
0.200000 0.100000 0
0.300000 0.100000 0
0.400000 0.100000 0
0.500000 0.100000 0
0.600000 0.100000 0
0.700000 0.100000 0
0.800000 0.100000 0
0.900000 0.100000 0
1.000000 0.100000 0
1.100000 0.100000 0
1.200000 0.100000 0
1.300000 0.100000 0
1.400000 0.100000 0
1.500000 0.100000 0
1.600000 0.100000 0
1.700000 0.100000 0
1.800000 0.100000 0
1.900000 0.100000 0
2.000000 0.100000 0
2.100000 0.100000 0
2.200000 0.100000 0
2.300000 0.100000 0
2.400000 0.100000 0
2.500000 0.100000 0
2.600000 0.100000 0
2.700000 0.100000 0
2.800000 0.100000 0
2.900000 0.100000 0
3.000000 0.100000 0
3.100000 0.100000 0
3.200000 0.100000 0
3.300000 0.100000 0
3.400000 0.100000 0
3.500000 0.100000 0
3.600000 0.100000 0
3.700000 0.100000 0
3.800000 0.100000 0
3.900000 0.100000 0
4.000000 0.100000 0
4.100000 0.100000 0
4.200000 0.100000 0
4.300000 0.100000 0
4.400000 0.100000 0
4.500000 0.100000 0
4.600000 0.100000 0
4.700000 0.100000 0
4.800000 0.100000 0
4.900000 0.100000 0
5.000000 0.100000 0
5.100000 0.100000 0
5.200000 0.100000 0
5.300000 0.100000 0
5.400000 0.100000 0
5.500000 0.100000 0
5.600000 0.100000 0
5.700000 0.100000 0
5.800000 0.100000 0
5.900000 0.100000 0
6.000000 0.100000 0
6.100000 0.100000 0
6.200000 0.100000 0
6.300000 0.100000 0
6.400000 0.100000 0
6.500000 0.100000 0
6.600000 0.100000 0
6.700000 0.100000 0
6.800000 0.100000 0
6.900000 0.100000 0
7.000000 0.100000 0
7.100000 0.100000 0
7.200000 0.100000 0
7.300000 0.100000 0
7.400000 0.100000 0
7.500000 0.100000 0
7.600000 0.100000 0
7.700000 0.100000 0
7.800000 0.100000 0
7.900000 0.100000 0
8.000000 0.100000 0
8.100000 0.100000 0
8.200000 0.100000 0
8.300000 0.100000 0
8.400000 0.100000 0
8.500000 0.100000 0
8.600000 0.100000 0
8.700000 0.100000 0
8.800000 0.100000 0
8.900000 0.100000 0
9.000000 0.100000 0
9.100000 0.100000 0
9.200000 0.100000 0
9.300000 0.100000 0
9.400000 0.100000 0
9.500000 0.100000 0
9.600000 0.100000 0
9.700000 0.100000 0
9.800000 0.100000 0
9.900000 0.100000 0
10.000000 0.100000 0
0.000000 0.200000 0
0.100000 0.200000 0
0.200000 0.200000 0
0.300000 0.200000 0
0.400000 0.200000 0
0.500000 0.200000 0
0.600000 0.200000 0
0.700000 0.200000 0
0.800000 0.200000 0
0.900000 0.200000 0
1.000000 0.200000 0
1.100000 0.200000 0
1.200000 0.200000 0
1.300000 0.200000 0
1.400000 0.200000 0
1.500000 0.200000 0
1.600000 0.200000 0
1.700000 0.200000 0
1.800000 0.200000 0
1.900000 0.200000 0
2.000000 0.200000 0
2.100000 0.200000 0
2.200000 0.200000 0
2.300000 0.200000 0
2.400000 0.200000 0
2.500000 0.200000 0
2.600000 0.200000 0
2.700000 0.200000 0
2.800000 0.200000 0
2.900000 0.200000 0
3.000000 0.200000 0
3.100000 0.200000 0
3.200000 0.200000 0
3.300000 0.200000 0
3.400000 0.200000 0
3.500000 0.200000 0
3.600000 0.200000 0
3.700000 0.200000 0
3.800000 0.200000 0
3.900000 0.200000 0
4.000000 0.200000 0
4.100000 0.200000 0
4.200000 0.200000 0
4.300000 0.200000 0
4.400000 0.200000 0
4.500000 0.200000 0
4.600000 0.200000 0
4.700000 0.200000 0
4.800000 0.200000 0
4.900000 0.200000 0
5.000000 0.200000 0
5.100000 0.200000 0
5.200000 0.200000 0
5.300000 0.200000 0
5.400000 0.200000 0
5.500000 0.200000 0
5.600000 0.200000 0
5.700000 0.200000 0
5.800000 0.200000 0
5.900000 0.200000 0
6.000000 0.200000 0
6.100000 0.200000 0
6.200000 0.200000 0
6.300000 0.200000 0
6.400000 0.200000 0
6.500000 0.200000 0
6.600000 0.200000 0
6.700000 0.200000 0
6.800000 0.200000 0
6.900000 0.200000 0
7.000000 0.200000 0
7.100000 0.200000 0
7.200000 0.200000 0
7.300000 0.200000 0
7.400000 0.200000 0
7.500000 0.200000 0
7.600000 0.200000 0
7.700000 0.200000 0
7.800000 0.200000 0
7.900000 0.200000 0
8.000000 0.200000 0
8.100000 0.200000 0
8.200000 0.200000 0
8.300000 0.200000 0
8.400000 0.200000 0
8.500000 0.200000 0
8.600000 0.200000 0
8.700000 0.200000 0
8.800000 0.200000 0
8.900000 0.200000 0
9.000000 0.200000 0
9.100000 0.200000 0
9.200000 0.200000 0
9.300000 0.200000 0
9.400000 0.200000 0
9.500000 0.200000 0
9.600000 0.200000 0
9.700000 0.200000 0
9.800000 0.200000 0
9.900000 0.200000 0
10.000000 0.200000 0
0.000000 0.300000 0
0.100000 0.300000 0
0.200000 0.300000 0
0.300000 0.300000 0
0.400000 0.300000 0
0.500000 0.300000 0
0.600000 0.300000 0
0.700000 0.300000 0
0.800000 0.300000 0
0.900000 0.300000 0
1.000000 0.300000 0
1.100000 0.300000 0
1.200000 0.300000 0
1.300000 0.300000 0
1.400000 0.300000 0
1.500000 0.300000 0
1.600000 0.300000 0
1.700000 0.300000 0
1.800000 0.300000 0
1.900000 0.300000 0
2.000000 0.300000 0
2.100000 0.300000 0
2.200000 0.300000 0
2.300000 0.300000 0
2.400000 0.300000 0
2.500000 0.300000 0
2.600000 0.300000 0
2.700000 0.300000 0
2.800000 0.300000 0
2.900000 0.300000 0
3.000000 0.300000 0
3.100000 0.300000 0
3.200000 0.300000 0
3.300000 0.300000 0
3.400000 0.300000 0
3.500000 0.300000 0
3.600000 0.300000 0
3.700000 0.300000 0
3.800000 0.300000 0
3.900000 0.300000 0
4.000000 0.300000 0
4.100000 0.300000 0
4.200000 0.300000 0
4.300000 0.300000 0
4.400000 0.300000 0
4.500000 0.300000 0
4.600000 0.300000 0
4.700000 0.300000 0
4.800000 0.300000 0
4.900000 0.300000 0
5.000000 0.300000 0
5.100000 0.300000 0
5.200000 0.300000 0
5.300000 0.300000 0
5.400000 0.300000 0
5.500000 0.300000 0
5.600000 0.300000 0
5.700000 0.300000 0
5.800000 0.300000 0
5.900000 0.300000 0
6.000000 0.300000 0
6.100000 0.300000 0
6.200000 0.300000 0
6.300000 0.300000 0
6.400000 0.300000 0
6.500000 0.300000 0
6.600000 0.300000 0
6.700000 0.300000 0
6.800000 0.300000 0
6.900000 0.300000 0
7.000000 0.300000 0
7.100000 0.300000 0
7.200000 0.300000 0
7.300000 0.300000 0
7.400000 0.300000 0
7.500000 0.300000 0
7.600000 0.300000 0
7.700000 0.300000 0
7.800000 0.300000 0
7.900000 0.300000 0
8.000000 0.300000 0
8.100000 0.300000 0
8.200000 0.300000 0
8.300000 0.300000 0
8.400000 0.300000 0
8.500000 0.300000 0
8.600000 0.300000 0
8.700000 0.300000 0
8.800000 0.300000 0
8.900000 0.300000 0
9.000000 0.300000 0
9.100000 0.300000 0
9.200000 0.300000 0
9.300000 0.300000 0
9.400000 0.300000 0
9.500000 0.300000 0
9.600000 0.300000 0
9.700000 0.300000 0
9.800000 0.300000 0
9.900000 0.300000 0
10.000000 0.300000 0
0.000000 0.400000 0
0.100000 0.400000 0
0.200000 0.400000 0
0.300000 0.400000 0
0.400000 0.400000 0
0.500000 0.400000 0
0.600000 0.400000 0
0.700000 0.400000 0
0.800000 0.400000 0
0.900000 0.400000 0
1.000000 0.400000 0
1.100000 0.400000 0
1.200000 0.400000 0
1.300000 0.400000 0
1.400000 0.400000 0
1.500000 0.400000 0
1.600000 0.400000 0
1.700000 0.400000 0
1.800000 0.400000 0
1.900000 0.400000 0
2.000000 0.400000 0
2.100000 0.400000 0
2.200000 0.400000 0
2.300000 0.400000 0
2.400000 0.400000 0
2.500000 0.400000 0
2.600000 0.400000 0
2.700000 0.400000 0
2.800000 0.400000 0
2.900000 0.400000 0
3.000000 0.400000 0
3.100000 0.400000 0
3.200000 0.400000 0
3.300000 0.400000 0
3.400000 0.400000 0
3.500000 0.400000 0
3.600000 0.400000 0
3.700000 0.400000 0
3.800000 0.400000 0
3.900000 0.400000 0
4.000000 0.400000 0
4.100000 0.400000 0
4.200000 0.400000 0
4.300000 0.400000 0
4.400000 0.400000 0
4.500000 0.400000 0
4.600000 0.400000 0
4.700000 0.400000 0
4.800000 0.400000 0
4.900000 0.400000 0
5.000000 0.400000 0
5.100000 0.400000 0
5.200000 0.400000 0
5.300000 0.400000 0
5.400000 0.400000 0
5.500000 0.400000 0
5.600000 0.400000 0
5.700000 0.400000 0
5.800000 0.400000 0
5.900000 0.400000 0
6.000000 0.400000 0
6.100000 0.400000 0
6.200000 0.400000 0
6.300000 0.400000 0
6.400000 0.400000 0
6.500000 0.400000 0
6.600000 0.400000 0
6.700000 0.400000 0
6.800000 0.400000 0
6.900000 0.400000 0
7.000000 0.400000 0
7.100000 0.400000 0
7.200000 0.400000 0
7.300000 0.400000 0
7.400000 0.400000 0
7.500000 0.400000 0
7.600000 0.400000 0
7.700000 0.400000 0
7.800000 0.400000 0
7.900000 0.400000 0
8.000000 0.400000 0
8.100000 0.400000 0
8.200000 0.400000 0
8.300000 0.400000 0
8.400000 0.400000 0
8.500000 0.400000 0
8.600000 0.400000 0
[...]
POINT_DATA 2121 

VECTORS velocity float
0.500000 0.000000 0
0.000052 0.000000 0
0.000168 0.000000 0
0.000354 0.000000 0
0.000607 0.000000 0
0.000915 0.000000 0
0.001255 0.000000 0
0.001592 0.000000 0
0.001858 0.000000 0
0.001985 0.000000 0
0.001953 0.000000 0
0.001750 0.000000 0
0.001337 0.000000 0
0.000652 0.000000 0
-0.000377 0.000000 0
-0.001810 0.000000 0
-0.003655 0.000000 0
-0.005799 0.000000 0
-0.008022 0.000000 0
-0.010061 0.000000 0
-0.011266 0.000000 0
-0.010705 0.000000 0
-0.007588 0.000000 0
-0.003081 0.000000 0
0.001301 0.000000 0
0.004499 0.000000 0
0.006203 0.000000 0
0.007308 0.000000 0
0.007695 0.000000 0
0.007443 0.000000 0
0.006722 0.000000 0
0.005721 0.000000 0
0.004607 0.000000 0
0.003485 0.000000 0
0.002409 0.000000 0
0.001429 0.000000 0
0.000623 0.000000 0
-0.000151 0.000000 0
-0.001314 0.000000 0
-0.002514 0.000000 0
-0.002640 0.000000 0
-0.001231 0.000000 0
0.000718 0.000000 0
0.001357 0.000000 0
0.004525 0.000000 0
0.020881 0.000000 0
0.013498 0.000000 0
0.000042 0.000000 0
-0.000835 0.000000 0
-0.005243 0.000000 0
-0.003000 0.000000 0
-0.001032 0.000000 0
0.002706 0.000000 0
0.007275 0.000000 0
0.008861 0.000000 0
0.006799 0.000000 0
0.003794 0.000000 0
0.001265 0.000000 0
-0.000425 0.000000 0
-0.001339 0.000000 0
-0.001366 0.000000 0
-0.000383 0.000000 0
0.000941 0.000000 0
0.001575 0.000000 0
0.000896 0.000000 0
-0.000998 0.000000 0
-0.003702 0.000000 0
-0.006749 0.000000 0
-0.009693 0.000000 0
-0.012159 0.000000 0
-0.013548 0.000000 0
-0.013610 0.000000 0
-0.011871 0.000000 0
-0.008587 0.000000 0
-0.008060 0.000000 0
-0.009064 0.000000 0
-0.008873 0.000000 0
-0.007964 0.000000 0
-0.006951 0.000000 0
-0.005458 0.000000 0
-0.003334 0.000000 0
-0.000757 0.000000 0
0.001969 0.000000 0
0.004631 0.000000 0
0.007805 0.000000 0
0.012973 0.000000 0
0.022512 0.000000 0
0.016720 0.000000 0
0.006089 0.000000 0
-0.000447 0.000000 0
-0.000278 0.000000 0
0.000625 0.000000 0
0.000371 0.000000 0
-0.000309 0.000000 0
-0.000541 0.000000 0
0.000175 0.000000 0
0.000735 0.000000 0
0.001051 0.000000 0
0.001205 0.000000 0
0.001275 0.000000 0
0.001193 0.000000 0
1.000000 -0.004467 0
1.009569 -0.013594 0
1.028671 -0.022857 0
1.057212 -0.031752 0
1.094760 -0.039583 0
1.140123 -0.045176 0
1.190542 -0.046851 0
1.241240 -0.042653 0
1.283686 -0.032219 0
1.311427 -0.017726 0
1.322124 -0.002054 0
1.316430 0.012560 0
1.296550 0.024607 0
1.265842 0.033015 0
1.228431 0.036967 0
1.189020 0.035660 0
1.153240 0.028243 0
1.127543 0.013859 0
1.118906 -0.008742 0
1.137985 -0.039681 0
1.197520 -0.072344 0
1.294410 -0.093444 0
1.405213 -0.088932 0
1.493029 -0.060305 0
1.540058 -0.023036 0
1.545321 0.010546 0
1.517925 0.034929 0
1.470256 0.050733 0
1.412235 0.059283 0
1.350737 0.061451 0
1.291150 0.058700 0
1.236884 0.052578 0
1.189846 0.044325 0
1.151281 0.034687 0
1.122297 0.024114 0
1.103832 0.013318 0
1.095456 0.003441 0
1.094183 -0.005382 0
1.100101 -0.013677 0
1.116923 -0.018508 0
1.140295 -0.013817 0
1.154874 0.001863 0
1.147099 0.018147 0
1.114950 0.026968 0
1.058387 0.098048 0
0.960118 0.229348 0
0.849164 0.178949 0
0.719671 0.027679 0
0.552153 -0.035447 0
0.575934 -0.071706 0
0.691504 -0.063026 0
0.715104 -0.027132 0
0.650773 0.017455 0
0.558157 0.071263 0
0.465967 0.097645 0
0.392445 0.083864 0
0.346723 0.051529 0
0.328331 0.017981 0
0.328709 -0.009241 0
0.341885 -0.027151 0
0.365179 -0.032362 0
0.385912 -0.021341 0
0.387722 -0.000254 0
0.368369 0.017598 0
0.339189 0.022079 0
0.316225 0.012105 0
0.312565 -0.009959 0
0.334629 -0.038959 0
0.382659 -0.067541 0
0.453598 -0.090431 0
0.542554 -0.103645 0
0.644283 -0.105251 0
0.750718 -0.093366 0
0.855604 -0.072437 0
0.951786 -0.061071 0
1.033396 -0.064110 0
1.099765 -0.064162 0
1.157323 -0.057050 0
1.208475 -0.048712 0
1.254158 -0.037494 0
1.287794 -0.021326 0
1.304619 -0.001277 0
1.301297 0.020602 0
1.276043 0.043186 0
1.229020 0.070178 0
1.158529 0.115421 0
1.067369 0.166072 0
0.975439 0.144810 0
0.910437 0.063184 0
0.869065 0.006797 0
0.833663 -0.005727 0
0.803916 0.000473 0
0.789524 -0.000064 0
0.791020 -0.004742 0
0.802158 -0.006230 0
0.809170 -0.003269 0
0.808963 0.000183 0
0.805269 0.002041 0
0.800973 0.002731 0
0.797284 0.002741 0
0.794417 0.002464 0
1.000000 -0.009561 0
1.009863 -0.028660 0
1.029534 -0.047636 0
1.059222 -0.066083 0
1.099164 -0.082904 0
1.149267 -0.095774 0
1.207540 -0.101109 0
1.270943 -0.093135 0
1.323404 -0.070178 0
1.355552 -0.038428 0
1.366369 -0.004992 0
1.358444 0.025584 0
1.334686 0.050598 0
1.299028 0.068129 0
1.255855 0.076831 0
1.209423 0.075199 0
1.165403 0.061484 0
1.130453 0.034340 0
1.108003 -0.010437 0
1.112553 -0.078610 0
1.178779 -0.156421 0
1.298175 -0.207690 0
1.439302 -0.198616 0
1.554664 -0.134842 0
1.615467 -0.052290 0
1.622453 0.022135 0
1.588978 0.075069 0
1.532828 0.105694 0
1.468848 0.119523 0
1.403979 0.121090 0
1.342449 0.113860 0
1.287622 0.101311 0
1.241727 0.085610 0
1.205231 0.067557 0
1.177540 0.047458 0
1.159288 0.026851 0
1.150574 0.009660 0
1.141743 -0.004635 0
1.133703 -0.022730 0
1.145306 -0.040182 0
1.178985 -0.037939 0
1.211241 -0.006794 0
1.217258 0.039934 0
1.183809 0.088722 0
1.112357 0.154842 0
1.076895 0.209233 0
1.091569 0.240457 0
0.981114 0.297021 0
0.853854 0.143746 0
0.731055 -0.139343 0
0.601718 -0.139162 0
0.517352 0.040740 0
0.445610 0.156956 0
0.380390 0.184813 0
0.336727 0.165720 0
0.326329 0.119252 0
0.342961 0.064122 0
0.352630 0.018021 0
0.337789 -0.013546 0
0.314576 -0.036462 0
0.302782 -0.044019 0
0.296487 -0.022534 0
0.274939 0.017551 0
0.236204 0.048541 0
0.196902 0.052153 0
0.174914 0.026633 0
0.178741 -0.018395 0
0.206617 -0.070085 0
0.250008 -0.118960 0
0.301739 -0.159886 0
0.360289 -0.190676 0
0.428572 -0.208155 0
0.510555 -0.211312 0
0.609916 -0.201059 0
0.721773 -0.177783 0
0.827668 -0.147971 0
0.917956 -0.123920 0
0.994997 -0.108701 0
1.055897 -0.096827 0
1.100147 -0.079311 0
1.134315 -0.050454 0
1.157399 -0.013498 0
1.166722 0.028582 0
1.158798 0.072283 0
1.137339 0.117518 0
1.103607 0.161655 0
1.087025 0.183094 0
1.094846 0.156935 0
1.078247 0.106376 0
1.046473 0.076776 0
1.019659 0.065150 0
1.003246 0.044139 0
0.985764 0.012896 0
0.957652 -0.012635 0
0.922072 -0.018151 0
0.894009 -0.006805 0
0.877009 0.003900 0
0.866149 0.007989 0
0.858792 0.007983 0
0.852444 0.006555 0
0.848859 0.005536 0
1.000000 -0.014325 0
1.008821 -0.043122 0
1.027469 -0.072216 0
1.056735 -0.101381 0
1.098019 -0.129626 0
1.153542 -0.153550 0
1.222618 -0.168524 0
1.314176 -0.158514 0
1.384882 -0.116824 0
1.421449 -0.060687 0
1.428849 -0.004942 0
1.414709 0.044247 0
1.381942 0.084025 0
1.335829 0.111848 0
1.281484 0.126574 0
1.221332 0.126114 0
1.162000 0.107214 0
1.114626 0.071260 0
1.064645 0.009159 0
1.021251 -0.110457 0
1.088723 -0.257967 0
1.224552 -0.353967 0
1.392571 -0.345421 0
1.551770 -0.236469 0
1.643197 -0.090824 0
1.670221 0.037035 0
1.644792 0.124555 0
1.580874 0.170865 0
1.500579 0.188133 0
1.421465 0.187852 0
1.352045 0.175059 0
1.292837 0.153303 0
1.240562 0.126720 0
1.193024 0.098878 0
1.150265 0.070061 0
1.120951 0.040288 0
1.120842 0.020991 0
1.120977 0.011493 0
1.110305 -0.017236 0
1.123484 -0.063786 0
1.165738 -0.079748 0
1.209758 -0.036407 0
1.228249 0.045583 0
1.210981 0.131873 0
1.167992 0.204966 0
1.134403 0.250140 0
1.098756 0.274734 0
1.077931 0.265397 0
1.111171 0.214615 0
0.969042 0.180433 0
0.697943 0.150681 0
0.520016 0.128979 0
0.454799 0.154421 0
0.418990 0.180150 0
0.388041 0.151709 0
0.389015 0.077633 0
0.431293 0.025231 0
0.482093 0.023156 0
0.516496 0.028816 0
0.520505 0.007860 0
0.486030 -0.014269 0
0.421581 0.006505 0
0.344254 0.060032 0
0.263692 0.095639 0
0.205625 0.083372 0
0.191877 0.030270 0
0.218615 -0.041658 0
0.272428 -0.110223 0
0.335758 -0.162660 0
0.388201 -0.200708 0
0.422305 -0.230474 0
0.441852 -0.255514 0
0.460195 -0.274706 0
0.489117 -0.283651 0
0.537547 -0.278819 0
0.607762 -0.260290 0
0.693138 -0.231489 0
0.778330 -0.194988 0
0.852405 -0.153860 0
0.907344 -0.115911 0
0.947442 -0.078576 0
0.974635 -0.033684 0
0.990912 0.019204 0
1.000750 0.072570 0
1.007884 0.125369 0
1.020015 0.165735 0
1.042833 0.174833 0
1.071781 0.153587 0
1.076308 0.111556 0
1.049028 0.065385 0
1.014554 0.037499 0
0.990729 0.034367 0
0.967628 0.045528 0
0.938843 0.058948 0
0.906491 0.057411 0
0.882912 0.041791 0
0.869185 0.028040 0
0.859483 0.020255 0
0.851313 0.016434 0
0.843298 0.012672 0
0.839233 0.009393 0
1.000000 -0.018379 0
1.006355 -0.056125 0
1.022709 -0.095549 0
1.049515 -0.136632 0
1.089932 -0.179710 0
1.149413 -0.220372 0
1.229811 -0.261741 0
1.388380 -0.255396 0
1.480918 -0.177447 0
1.517450 -0.082392 0
1.520384 0.001750 0
1.496236 0.072494 0
1.449247 0.129480 0
1.385641 0.168589 0
1.317771 0.191330 0
1.241754 0.194683 0
1.158526 0.168191 0
1.111166 0.131695 0
1.019258 0.082938 0
0.842579 -0.102689 0
0.861927 -0.359723 0
0.937565 -0.511538 0
1.119089 -0.525834 0
1.328648 -0.385468 0
1.462344 -0.170740 0
1.551035 0.020540 0
1.590763 0.164417 0
1.579300 0.249909 0
1.524791 0.278934 0
1.448315 0.269625 0
1.375051 0.242490 0
1.318136 0.212796 0
1.271448 0.185425 0
1.217098 0.157858 0
1.148918 0.119535 0
1.105546 0.056278 0
1.158000 0.009637 0
1.252974 0.005906 0
1.285796 -0.025233 0
1.276278 -0.095611 0
1.248240 -0.124209 0
1.215909 -0.069301 0
1.184937 0.038715 0
1.155468 0.148983 0
1.127139 0.231423 0
1.105060 0.278473 0
1.085246 0.296933 0
1.077841 0.284609 0
1.061422 0.252638 0
1.015943 0.273889 0
0.939635 0.309867 0
0.837347 0.283887 0
0.745928 0.257985 0
0.699091 0.251574 0
0.690419 0.195698 0
0.697224 0.076002 0
0.684589 -0.028954 0
0.668477 -0.067178 0
0.683251 -0.051955 0
0.706436 -0.005992 0
0.701282 0.054908 0
0.617827 0.119245 0
0.483652 0.175444 0
0.358473 0.187174 0
0.288403 0.123971 0
0.286933 0.013647 0
0.343565 -0.098942 0
0.423023 -0.187225 0
0.511129 -0.234730 0
0.592538 -0.246429 0
0.650648 -0.244324 0
0.674609 -0.246042 0
0.664953 -0.258574 0
0.635283 -0.278409 0
0.605670 -0.296424 0
0.591971 -0.303559 0
0.601346 -0.294485 0
0.631769 -0.267966 0
0.677336 -0.225840 0
0.728808 -0.174347 0
0.774059 -0.117743 0
0.811426 -0.056966 0
0.843247 0.002468 0
0.874630 0.055310 0
0.905005 0.098253 0
0.940222 0.126706 0
0.968846 0.131327 0
0.982139 0.123458 0
0.974467 0.129129 0
0.949436 0.138528 0
0.920358 0.123447 0
0.904076 0.091064 0
0.899145 0.064780 0
0.899990 0.048499 0
0.900114 0.037777 0
0.891073 0.030498 0
0.874687 0.027327 0
0.857261 0.025857 0
0.842210 0.024165 0
0.830416 0.018632 0
0.825804 0.013395 0
1.000000 -0.020679 0
1.001089 -0.065830 0
1.015453 -0.115375 0
1.034988 -0.168603 0
1.069167 -0.229524 0
1.123358 -0.293428 0
1.216207 -0.407489 0
1.503239 -0.409619 0
1.587521 -0.245892 0
1.593744 -0.100150 0
1.587259 0.016275 0
1.568629 0.115386 0
1.522250 0.194621 0
1.459233 0.243325 0
1.391607 0.270463 0
1.255407 0.285360 0
1.070310 0.237801 0
1.111947 0.210527 0
1.173303 0.277745 0
0.999251 0.046873 0
0.557195 -0.352953 0
0.361510 -0.611130 0
0.470800 -0.736505 0
0.780613 -0.579724 0
1.048062 -0.313212 0
1.204483 -0.091384 0
1.293211 0.096290 0
1.361055 0.236837 0
1.400031 0.319120 0
1.392138 0.337594 0
1.355662 0.305240 0
1.314903 0.256908 0
1.272386 0.227760 0
1.239833 0.221411 0
1.255831 0.181616 0
1.253876 0.031210 0
1.090673 -0.126434 0
0.967824 -0.116299 0
0.940443 -0.040536 0
0.936464 -0.026227 0
0.929434 -0.019375 0
0.919788 0.026901 0
0.917847 0.106028 0
0.931222 0.189675 0
0.951611 0.255377 0
0.973252 0.292036 0
0.991668 0.301957 0
1.008359 0.289225 0
1.008313 0.276516 0
0.984559 0.302223 0
0.990176 0.329280 0
0.996164 0.322689 0
0.985478 0.292679 0
0.993055 0.235662 0
1.023118 0.153579 0
1.031338 0.083465 0
0.990805 0.053981 0
0.934334 0.024496 0
0.901720 -0.009140 0
0.896495 -0.010167 0
0.841827 0.074343 0
0.695756 0.224139 0
0.534837 0.319389 0
0.432949 0.290892 0
0.412268 0.154916 0
0.444067 -0.024890 0
0.503893 -0.177744 0
0.576605 -0.277783 0
0.654980 -0.332173 0
0.737830 -0.340224 0
0.810920 -0.312542 0
0.860782 -0.269816 0
0.878292 -0.235377 0
0.864801 -0.224366 0
0.827819 -0.235505 0
0.775807 -0.255964 0
0.723222 -0.271285 0
0.683761 -0.270976 0
0.665015 -0.250898 0
0.668102 -0.212632 0
0.686563 -0.161193 0
0.715462 -0.102872 0
0.750786 -0.044000 0
0.787367 0.010811 0
0.821648 0.059776 0
0.850769 0.101893 0
0.873062 0.132915 0
0.883920 0.147965 0
0.896678 0.144257 0
0.926224 0.119491 0
0.961268 0.082856 0
0.978865 0.055576 0
0.975110 0.049612 0
0.955845 0.057977 0
0.927827 0.066324 0
0.896170 0.067214 0
0.865941 0.061850 0
0.841170 0.052728 0
0.822676 0.043275 0
0.809982 0.029075 0
0.805409 0.018237 0
1.000000 -0.019468 0
0.997838 -0.071577 0
1.008073 -0.129449 0
1.005525 -0.190348 0
1.033368 -0.268080 0
1.058579 -0.367411 0
1.186853 -0.641621 0
1.539952 -0.626709 0
1.476593 -0.267950 0
1.395115 -0.082128 0
1.377157 0.026867 0
1.394266 0.137505 0
1.427503 0.238877 0
1.321079 0.299233 0
1.396618 0.395156 0
1.382916 0.515980 0
1.281870 0.311650 0
0.954828 0.028700 0
0.803147 0.195632 0
0.434372 0.513419 0
0.148636 0.278018 0
-0.010801 -0.425144 0
-0.036267 -0.944939 0
0.114943 -0.962731 0
0.523725 -0.594611 0
0.795504 -0.224609 0
0.956481 0.007844 0
1.031168 0.143090 0
1.073088 0.247851 0
1.120686 0.313995 0
1.157253 0.319726 0
1.176595 0.296074 0
1.199323 0.260498 0
1.249010 0.174416 0
1.171936 0.105495 0
0.952910 0.221438 0
0.646951 0.295692 0
0.401816 0.156140 0
0.316962 0.006131 0
0.324067 -0.084599 0
0.373947 -0.107528 0
0.447633 -0.057710 0
0.537690 0.027284 0
0.633687 0.115223 0
0.724870 0.189396 0
0.807821 0.238419 0
0.874574 0.261830 0
0.924277 0.267967 0
0.951133 0.276441 0
0.967883 0.292028 0
1.005697 0.298265 0
1.049144 0.288588 0
1.094030 0.261097 0
1.129675 0.213937 0
1.148029 0.157418 0
1.135998 0.108318 0
1.116316 0.068052 0
1.103171 0.021909 0
1.086735 -0.014113 0
1.071442 0.053905 0
0.917153 0.255650 0
0.711704 0.426238 0
0.580936 0.438255 0
0.563680 0.309746 0
0.613465 0.112856 0
0.672006 -0.077974 0
0.713452 -0.231477 0
0.754120 -0.338309 0
0.794355 -0.395951 0
0.849342 -0.402366 0
0.910766 -0.367272 0
0.955514 -0.313410 0
0.981183 -0.262590 0
0.986476 -0.227934 0
0.970333 -0.207429 0
0.936489 -0.198960 0
0.893822 -0.202437 0
0.842789 -0.209758 0
0.790716 -0.210180 0
0.749548 -0.195895 0
0.724928 -0.165103 0
0.718183 -0.121189 0
0.726553 -0.069438 0
0.745570 -0.015553 0
0.772191 0.034849 0
0.806155 0.075290 0
0.848378 0.098174 0
0.895528 0.099840 0
0.939932 0.086822 0
0.970199 0.073935 0
0.974322 0.070802 0
0.952477 0.077218 0
0.917219 0.087797 0
0.882542 0.095778 0
0.854845 0.097448 0
0.833571 0.092380 0
0.816856 0.082321 0
0.803940 0.069117 0
0.794043 0.055348 0
0.787512 0.035895 0
0.784055 0.022089 0
1.000000 -0.018518 0
0.998160 -0.073904 0
0.997986 -0.123064 0
0.978046 -0.193900 0
0.992100 -0.282579 0
0.953480 -0.446913 0
1.075832 -0.888863 0
0.754402 -0.598305 0
-0.001780 0.000000 0
-0.000717 0.000000 0
0.576614 0.017838 0
0.619758 0.065041 0
0.729606 0.267809 0
0.970947 0.274210 0
0.730401 0.208625 0
0.740210 0.400106 0
0.812349 0.665887 0
0.270487 0.689249 0
-0.144756 0.798200 0
-0.220183 0.701382 0
-0.050262 0.092218 0
0.072602 -0.426229 0
0.006616 -0.862251 0
-0.079982 -1.139718 0
0.084201 -0.993774 0
0.456066 -0.524141 0
0.684942 -0.139374 0
0.785309 0.120230 0
0.824055 0.229603 0
0.872141 0.253430 0
0.969354 0.249332 0
1.075840 0.214841 0
1.102761 0.155348 0
0.952772 0.248799 0
0.649064 0.477718 0
0.373454 0.556198 0
0.306992 0.424664 0
0.283476 0.213693 0
0.245549 0.037216 0
0.212821 -0.083208 0
0.198486 -0.142937 0
0.223225 -0.136840 0
0.296123 -0.080023 0
0.398696 0.002499 0
0.515700 0.081247 0
0.631281 0.142335 0
0.736674 0.185503 0
0.822689 0.212669 0
0.887908 0.232913 0
0.943643 0.247661 0
0.998828 0.248022 0
1.053445 0.234359 0
1.109225 0.212151 0
1.155039 0.181666 0
1.183590 0.147260 0
1.193799 0.115182 0
1.191506 0.086811 0
1.171903 0.054079 0
1.118788 0.022592 0
0.991375 0.159418 0
0.811181 0.434085 0
0.715448 0.560358 0
0.734982 0.467416 0
0.812193 0.258366 0
0.869289 0.046593 0
0.902403 -0.124874 0
0.915936 -0.259855 0
0.901980 -0.358683 0
0.859628 -0.427392 0
0.845686 -0.456631 0
0.883476 -0.418710 0
0.933782 -0.340231 0
0.976211 -0.266337 0
0.997803 -0.213514 0
1.000377 -0.185517 0
0.995919 -0.179452 0
0.986668 -0.177583 0
0.969413 -0.167870 0
0.941324 -0.157656 0
0.903708 -0.146843 0
0.866682 -0.129828 0
0.839746 -0.104498 0
0.828721 -0.071388 0
0.834536 -0.034828 0
0.854298 -0.000811 0
0.882946 0.025704 0
0.913596 0.043539 0
0.936379 0.056407 0
0.942019 0.069582 0
0.928032 0.085097 0
0.901235 0.100574 0
0.870257 0.112675 0
0.842426 0.119542 0
0.820936 0.120346 0
0.805619 0.115290 0
0.794986 0.105198 0
0.787499 0.091475 0
0.781655 0.075536 0
0.778077 0.059698 0
0.774668 0.039057 0
0.772024 0.024761 0
1.000000 -0.017630 0
1.001819 -0.069567 0
0.973014 -0.109337 0
0.976617 -0.184464 0
0.914605 -0.243516 0
0.883452 -0.451145 0
0.716156 -0.543599 0
0.000000 -0.003130 0
-0.659808 0.205776 0
-0.588224 0.000000 0
0.000000 0.000000 0
0.022509 -0.010815 0
0.072382 -0.112312 0
0.222531 0.298438 0
0.186746 0.625892 0
-0.013228 0.434030 0
-0.105515 0.781370 0
-0.217754 0.985803 0
-0.476305 0.686300 0
-0.111997 0.418922 0
0.071864 -0.014770 0
0.171147 -0.482024 0
0.169666 -0.792356 0
0.112903 -1.040318 0
0.008346 -1.130660 0
0.228757 -0.825352 0
0.496187 -0.321399 0
0.650196 0.003977 0
0.708278 0.161019 0
0.726181 0.168697 0
0.800700 0.116029 0
0.823271 0.162669 0
0.670486 0.383568 0
0.397693 0.628115 0
0.301633 0.684815 0
0.349595 0.563513 0
0.391246 0.385673 0
0.377974 0.217587 0
0.324964 0.076788 0
0.257225 -0.037533 0
0.197074 -0.117928 0
0.167285 -0.155344 0
0.184668 -0.148184 0
0.250799 -0.104351 0
0.353847 -0.043185 0
0.472822 0.017449 0
0.594467 0.070426 0
0.710051 0.116736 0
0.812384 0.155490 0
0.901148 0.181112 0
0.974067 0.188466 0
1.030718 0.178194 0
1.085412 0.159506 0
1.134123 0.139575 0
1.171513 0.118661 0
1.194276 0.100405 0
1.198616 0.089952 0
1.173527 0.094630 0
1.090855 0.166418 0
0.921838 0.361515 0
0.833958 0.531580 0
0.868322 0.502440 0
0.958425 0.341513 0
1.033424 0.175441 0
1.068950 0.022649 0
1.079949 -0.124618 0
1.075745 -0.231050 0
1.053616 -0.281998 0
1.012973 -0.339655 0
0.935749 -0.426211 0
0.838130 -0.455365 0
0.800888 -0.406143 0
0.820125 -0.326609 0
0.850567 -0.252098 0
0.884782 -0.205543 0
0.915364 -0.185250 0
0.932505 -0.175931 0
0.944045 -0.164413 0
0.955309 -0.144475 0
0.962387 -0.121253 0
0.963427 -0.101142 0
0.957449 -0.083229 0
0.946317 -0.064229 0
0.934888 -0.041133 0
0.926368 -0.013563 0
0.919496 0.015989 0
0.911240 0.044738 0
0.898146 0.071413 0
0.879819 0.095164 0
0.859018 0.114715 0
0.839347 0.128572 0
0.822928 0.136023 0
0.810606 0.137113 0
0.801774 0.132579 0
0.794827 0.123392 0
0.788251 0.110495 0
0.780781 0.095646 0
0.772956 0.078533 0
0.766104 0.062329 0
0.760308 0.041943 0
0.757813 0.027028 0
1.000000 -0.020340 0
0.995615 -0.046924 0
0.967305 -0.097866 0
0.957728 -0.135494 0
0.874916 -0.189418 0
0.835145 -0.248468 0
0.483249 -0.098857 0
0.327904 0.024405 0
0.000000 0.000000 0
0.000000 0.000000 0
0.000000 0.000000 0
0.000000 0.000000 0
-0.008146 0.070457 0
-0.108494 0.159845 0
0.135263 0.444381 0
0.087349 0.692364 0
-0.071602 0.870411 0
-0.072798 1.060035 0
-0.141511 0.692440 0
0.019070 0.153210 0
0.268522 -0.190929 0
0.334525 -0.524033 0
0.330324 -0.804010 0
0.270808 -0.978400 0
0.189189 -1.109629 0
0.148427 -1.011983 0
0.374978 -0.560814 0
0.527686 -0.091861 0
0.573921 0.153618 0
0.577749 0.161008 0
0.533108 0.152243 0
0.422068 0.345056 0
0.288156 0.580928 0
0.299269 0.617654 0
0.386823 0.525819 0
0.406035 0.466588 0
0.396623 0.396288 0
0.387597 0.279979 0
0.348622 0.157968 0
0.283932 0.044684 0
0.221246 -0.052994 0
0.179444 -0.124430 0
0.170049 -0.163534 0
0.203123 -0.166677 0
0.275130 -0.140773 0
0.374052 -0.098281 0
0.485001 -0.051722 0
0.600992 -0.005245 0
0.716080 0.041818 0
0.823163 0.085981 0
0.915387 0.118455 0
0.987873 0.123016 0
1.042028 0.108749 0
1.091250 0.095567 0
1.128644 0.087109 0
1.149687 0.088082 0
1.149403 0.107563 0
1.120277 0.161843 0
1.054418 0.274283 0
0.996799 0.416318 0
1.031287 0.487604 0
1.109894 0.435894 0
1.165818 0.302318 0
1.198248 0.147845 0
1.229334 0.000071 0
1.247407 -0.131666 0
1.248472 -0.233519 0