# vtk DataFile Version 2.0
generated by CFD-lab course output (written by Tobias Neckel) 
ASCII

DATASET STRUCTURED_GRID
DIMENSIONS  101 21 1 
POINTS 2121 float

0.000000 0.000000 0
0.100000 0.000000 0
0.200000 0.000000 0
0.300000 0.000000 0
0.400000 0.000000 0
0.500000 0.000000 0
0.600000 0.000000 0
0.700000 0.000000 0
0.800000 0.000000 0
0.900000 0.000000 0
1.000000 0.000000 0
1.100000 0.000000 0
1.200000 0.000000 0
1.300000 0.000000 0
1.400000 0.000000 0
1.500000 0.000000 0
1.600000 0.000000 0
1.700000 0.000000 0
1.800000 0.000000 0
1.900000 0.000000 0
2.000000 0.000000 0
2.100000 0.000000 0
2.200000 0.000000 0
2.300000 0.000000 0
2.400000 0.000000 0
2.500000 0.000000 0
2.600000 0.000000 0
2.700000 0.000000 0
2.800000 0.000000 0
2.900000 0.000000 0
3.000000 0.000000 0
3.100000 0.000000 0
3.200000 0.000000 0
3.300000 0.000000 0
3.400000 0.000000 0
3.500000 0.000000 0
3.600000 0.000000 0
3.700000 0.000000 0
3.800000 0.000000 0
3.900000 0.000000 0
4.000000 0.000000 0
4.100000 0.000000 0
4.200000 0.000000 0
4.300000 0.000000 0
4.400000 0.000000 0
4.500000 0.000000 0
4.600000 0.000000 0
4.700000 0.000000 0
4.800000 0.000000 0
4.900000 0.000000 0
5.000000 0.000000 0
5.100000 0.000000 0
5.200000 0.000000 0
5.300000 0.000000 0
5.400000 0.000000 0
5.500000 0.000000 0
5.600000 0.000000 0
5.700000 0.000000 0
5.800000 0.000000 0
5.900000 0.000000 0
6.000000 0.000000 0
6.100000 0.000000 0
6.200000 0.000000 0
6.300000 0.000000 0
6.400000 0.000000 0
6.500000 0.000000 0
6.600000 0.000000 0
6.700000 0.000000 0
6.800000 0.000000 0
6.900000 0.000000 0
7.000000 0.000000 0
7.100000 0.000000 0
7.200000 0.000000 0
7.300000 0.000000 0
7.400000 0.000000 0
7.500000 0.000000 0
7.600000 0.000000 0
7.700000 0.000000 0
7.800000 0.000000 0
7.900000 0.000000 0
8.000000 0.000000 0
8.100000 0.000000 0
8.200000 0.000000 0
8.300000 0.000000 0
8.400000 0.000000 0
8.500000 0.000000 0
8.600000 0.000000 0
8.700000 0.000000 0
8.800000 0.000000 0
8.900000 0.000000 0
9.000000 0.000000 0
9.100000 0.000000 0
9.200000 0.000000 0
9.300000 0.000000 0
9.400000 0.000000 0
9.500000 0.000000 0
9.600000 0.000000 0
9.700000 0.000000 0
9.800000 0.000000 0
9.900000 0.000000 0
10.000000 0.000000 0
0.000000 0.100000 0
0.100000 0.100000 0
0.200000 0.100000 0
0.300000 0.100000 0
0.400000 0.100000 0
0.500000 0.100000 0
0.600000 0.100000 0
0.700000 0.100000 0
0.800000 0.100000 0
0.900000 0.100000 0
1.000000 0.100000 0
1.100000 0.100000 0
1.200000 0.100000 0
1.300000 0.100000 0
1.400000 0.100000 0
1.500000 0.100000 0
1.600000 0.100000 0
1.700000 0.100000 0
1.800000 0.100000 0
1.900000 0.100000 0
2.000000 0.100000 0
2.100000 0.100000 0
2.200000 0.100000 0
2.300000 0.100000 0
2.400000 0.100000 0
2.500000 0.100000 0
2.600000 0.100000 0
2.700000 0.100000 0
2.800000 0.100000 0
2.900000 0.100000 0
3.000000 0.100000 0
3.100000 0.100000 0
3.200000 0.100000 0
3.300000 0.100000 0
3.400000 0.100000 0
3.500000 0.100000 0
3.600000 0.100000 0
3.700000 0.100000 0
3.800000 0.100000 0
3.900000 0.100000 0
4.000000 0.100000 0
4.100000 0.100000 0
4.200000 0.100000 0
4.300000 0.100000 0
4.400000 0.100000 0
4.500000 0.100000 0
4.600000 0.100000 0
4.700000 0.100000 0
4.800000 0.100000 0
4.900000 0.100000 0
5.000000 0.100000 0
5.100000 0.100000 0
5.200000 0.100000 0
5.300000 0.100000 0
5.400000 0.100000 0
5.500000 0.100000 0
5.600000 0.100000 0
5.700000 0.100000 0
5.800000 0.100000 0
5.900000 0.100000 0
6.000000 0.100000 0
6.100000 0.100000 0
6.200000 0.100000 0
6.300000 0.100000 0
6.400000 0.100000 0
6.500000 0.100000 0
6.600000 0.100000 0
6.700000 0.100000 0
6.800000 0.100000 0
6.900000 0.100000 0
7.000000 0.100000 0
7.100000 0.100000 0
7.200000 0.100000 0
7.300000 0.100000 0
7.400000 0.100000 0
7.500000 0.100000 0
7.600000 0.100000 0
7.700000 0.100000 0
7.800000 0.100000 0
7.900000 0.100000 0
8.000000 0.100000 0
8.100000 0.100000 0
8.200000 0.100000 0
8.300000 0.100000 0
8.400000 0.100000 0
8.500000 0.100000 0
8.600000 0.100000 0
8.700000 0.100000 0
8.800000 0.100000 0
8.900000 0.100000 0
9.000000 0.100000 0
9.100000 0.100000 0
9.200000 0.100000 0
9.300000 0.100000 0
9.400000 0.100000 0
9.500000 0.100000 0
9.600000 0.100000 0
9.700000 0.100000 0
9.800000 0.100000 0
9.900000 0.100000 0
10.000000 0.100000 0
0.000000 0.200000 0
0.100000 0.200000 0
0.200000 0.200000 0
0.300000 0.200000 0
0.400000 0.200000 0
0.500000 0.200000 0
0.600000 0.200000 0
0.700000 0.200000 0
0.800000 0.200000 0
0.900000 0.200000 0
1.000000 0.200000 0
1.100000 0.200000 0
1.200000 0.200000 0
1.300000 0.200000 0
1.400000 0.200000 0
1.500000 0.200000 0
1.600000 0.200000 0
1.700000 0.200000 0
1.800000 0.200000 0
1.900000 0.200000 0
2.000000 0.200000 0
2.100000 0.200000 0
2.200000 0.200000 0
2.300000 0.200000 0
2.400000 0.200000 0
2.500000 0.200000 0
2.600000 0.200000 0
2.700000 0.200000 0
2.800000 0.200000 0
2.900000 0.200000 0
3.000000 0.200000 0
3.100000 0.200000 0
3.200000 0.200000 0
3.300000 0.200000 0
3.400000 0.200000 0
3.500000 0.200000 0
3.600000 0.200000 0
3.700000 0.200000 0
3.800000 0.200000 0
3.900000 0.200000 0
4.000000 0.200000 0
4.100000 0.200000 0
4.200000 0.200000 0
4.300000 0.200000 0
4.400000 0.200000 0
4.500000 0.200000 0
4.600000 0.200000 0
4.700000 0.200000 0
4.800000 0.200000 0
4.900000 0.200000 0
5.000000 0.200000 0
5.100000 0.200000 0
5.200000 0.200000 0
5.300000 0.200000 0
5.400000 0.200000 0
5.500000 0.200000 0
5.600000 0.200000 0
5.700000 0.200000 0
5.800000 0.200000 0
5.900000 0.200000 0
6.000000 0.200000 0
6.100000 0.200000 0
6.200000 0.200000 0
6.300000 0.200000 0
6.400000 0.200000 0
6.500000 0.200000 0
6.600000 0.200000 0
6.700000 0.200000 0
6.800000 0.200000 0
6.900000 0.200000 0
7.000000 0.200000 0
7.100000 0.200000 0
7.200000 0.200000 0
7.300000 0.200000 0
7.400000 0.200000 0
7.500000 0.200000 0
7.600000 0.200000 0
7.700000 0.200000 0
7.800000 0.200000 0
7.900000 0.200000 0
8.000000 0.200000 0
8.100000 0.200000 0
8.200000 0.200000 0
8.300000 0.200000 0
8.400000 0.200000 0
8.500000 0.200000 0
8.600000 0.200000 0
8.700000 0.200000 0
8.800000 0.200000 0
8.900000 0.200000 0
9.000000 0.200000 0
9.100000 0.200000 0
9.200000 0.200000 0
9.300000 0.200000 0
9.400000 0.200000 0
9.500000 0.200000 0
9.600000 0.200000 0
9.700000 0.200000 0
9.800000 0.200000 0
9.900000 0.200000 0
10.000000 0.200000 0
0.000000 0.300000 0
0.100000 0.300000 0
0.200000 0.300000 0
0.300000 0.300000 0
0.400000 0.300000 0
0.500000 0.300000 0
0.600000 0.300000 0
0.700000 0.300000 0
0.800000 0.300000 0
0.900000 0.300000 0
1.000000 0.300000 0
1.100000 0.300000 0
1.200000 0.300000 0
1.300000 0.300000 0
1.400000 0.300000 0
1.500000 0.300000 0
1.600000 0.300000 0
1.700000 0.300000 0
1.800000 0.300000 0
1.900000 0.300000 0
2.000000 0.300000 0
2.100000 0.300000 0
2.200000 0.300000 0
2.300000 0.300000 0
2.400000 0.300000 0
2.500000 0.300000 0
2.600000 0.300000 0
2.700000 0.300000 0
2.800000 0.300000 0
2.900000 0.300000 0
3.000000 0.300000 0
3.100000 0.300000 0
3.200000 0.300000 0
3.300000 0.300000 0
3.400000 0.300000 0
3.500000 0.300000 0
3.600000 0.300000 0
3.700000 0.300000 0
3.800000 0.300000 0
3.900000 0.300000 0
4.000000 0.300000 0
4.100000 0.300000 0
4.200000 0.300000 0
4.300000 0.300000 0
4.400000 0.300000 0
4.500000 0.300000 0
4.600000 0.300000 0
4.700000 0.300000 0
4.800000 0.300000 0
4.900000 0.300000 0
5.000000 0.300000 0
5.100000 0.300000 0
5.200000 0.300000 0
5.300000 0.300000 0
5.400000 0.300000 0
5.500000 0.300000 0
5.600000 0.300000 0
5.700000 0.300000 0
5.800000 0.300000 0
5.900000 0.300000 0
6.000000 0.300000 0
6.100000 0.300000 0
6.200000 0.300000 0
6.300000 0.300000 0
6.400000 0.300000 0
6.500000 0.300000 0
6.600000 0.300000 0
6.700000 0.300000 0
6.800000 0.300000 0
6.900000 0.300000 0
7.000000 0.300000 0
7.100000 0.300000 0
7.200000 0.300000 0
7.300000 0.300000 0
7.400000 0.300000 0
7.500000 0.300000 0
7.600000 0.300000 0
7.700000 0.300000 0
7.800000 0.300000 0
7.900000 0.300000 0
8.000000 0.300000 0
8.100000 0.300000 0
8.200000 0.300000 0
8.300000 0.300000 0
8.400000 0.300000 0
8.500000 0.300000 0
8.600000 0.300000 0
8.700000 0.300000 0
8.800000 0.300000 0
8.900000 0.300000 0
9.000000 0.300000 0
9.100000 0.300000 0
9.200000 0.300000 0
9.300000 0.300000 0
9.400000 0.300000 0
9.500000 0.300000 0
9.600000 0.300000 0
9.700000 0.300000 0
9.800000 0.300000 0
9.900000 0.300000 0
10.000000 0.300000 0
0.000000 0.400000 0
0.100000 0.400000 0
0.200000 0.400000 0
0.300000 0.400000 0
0.400000 0.400000 0
0.500000 0.400000 0
0.600000 0.400000 0
0.700000 0.400000 0
0.800000 0.400000 0
0.900000 0.400000 0
1.000000 0.400000 0
1.100000 0.400000 0
1.200000 0.400000 0
1.300000 0.400000 0
1.400000 0.400000 0
1.500000 0.400000 0
1.600000 0.400000 0
1.700000 0.400000 0
1.800000 0.400000 0
1.900000 0.400000 0
2.000000 0.400000 0
2.100000 0.400000 0
2.200000 0.400000 0
2.300000 0.400000 0
2.400000 0.400000 0
2.500000 0.400000 0
2.600000 0.400000 0
2.700000 0.400000 0
2.800000 0.400000 0
2.900000 0.400000 0
3.000000 0.400000 0
3.100000 0.400000 0
3.200000 0.400000 0
3.300000 0.400000 0
3.400000 0.400000 0
3.500000 0.400000 0
3.600000 0.400000 0
3.700000 0.400000 0
3.800000 0.400000 0
3.900000 0.400000 0
4.000000 0.400000 0
4.100000 0.400000 0
4.200000 0.400000 0
4.300000 0.400000 0
4.400000 0.400000 0
4.500000 0.400000 0
4.600000 0.400000 0
4.700000 0.400000 0
4.800000 0.400000 0
4.900000 0.400000 0
5.000000 0.400000 0
5.100000 0.400000 0
5.200000 0.400000 0
5.300000 0.400000 0
5.400000 0.400000 0
5.500000 0.400000 0
5.600000 0.400000 0
5.700000 0.400000 0
5.800000 0.400000 0
5.900000 0.400000 0
6.000000 0.400000 0
6.100000 0.400000 0
6.200000 0.400000 0
6.300000 0.400000 0
6.400000 0.400000 0
6.500000 0.400000 0
6.600000 0.400000 0
6.700000 0.400000 0
6.800000 0.400000 0
6.900000 0.400000 0
7.000000 0.400000 0
7.100000 0.400000 0
7.200000 0.400000 0
7.300000 0.400000 0
7.400000 0.400000 0
7.500000 0.400000 0
7.600000 0.400000 0
7.700000 0.400000 0
7.800000 0.400000 0
7.900000 0.400000 0
8.000000 0.400000 0
8.100000 0.400000 0
8.200000 0.400000 0
8.300000 0.400000 0
8.400000 0.400000 0
8.500000 0.400000 0
8.600000 0.400000 0
[...]
POINT_DATA 2121 

VECTORS velocity float
0.500000 0.000000 0
-0.000038 0.000000 0
-0.000066 0.000000 0
-0.000070 0.000000 0
-0.000033 0.000000 0
0.000060 0.000000 0
0.000230 0.000000 0
0.000492 0.000000 0
0.000834 0.000000 0
0.001198 0.000000 0
0.001517 0.000000 0
0.001880 0.000000 0
0.002244 0.000000 0
0.002569 0.000000 0
0.002826 0.000000 0
0.002990 0.000000 0
0.003012 0.000000 0
0.002673 0.000000 0
0.001959 0.000000 0
-0.000176 0.000000 0
-0.004487 0.000000 0
-0.010374 0.000000 0
-0.017463 0.000000 0
-0.024041 0.000000 0
-0.030195 0.000000 0
-0.032521 0.000000 0
-0.025424 0.000000 0
-0.011236 0.000000 0
0.002209 0.000000 0
0.011576 0.000000 0
0.016653 0.000000 0
0.018433 0.000000 0
0.018199 0.000000 0
0.017110 0.000000 0
0.015289 0.000000 0
0.012487 0.000000 0
0.009398 0.000000 0
0.009175 0.000000 0
0.011109 0.000000 0
0.010059 0.000000 0
0.004135 0.000000 0
-0.001649 0.000000 0
-0.004440 0.000000 0
-0.001398 0.000000 0
-0.000273 0.000000 0
-0.000835 0.000000 0
-0.001316 0.000000 0
-0.001259 0.000000 0
-0.001114 0.000000 0
-0.001082 0.000000 0
-0.001107 0.000000 0
-0.001121 0.000000 0
-0.001111 0.000000 0
-0.001086 0.000000 0
-0.001060 0.000000 0
-0.001034 0.000000 0
-0.001003 0.000000 0
-0.000967 0.000000 0
-0.000931 0.000000 0
-0.000900 0.000000 0
-0.000867 0.000000 0
-0.000824 0.000000 0
-0.000775 0.000000 0
-0.000732 0.000000 0
-0.000702 0.000000 0
-0.000674 0.000000 0
-0.000634 0.000000 0
-0.000581 0.000000 0
-0.000534 0.000000 0
-0.000509 0.000000 0
-0.000504 0.000000 0
-0.000495 0.000000 0
-0.000462 0.000000 0
-0.000403 0.000000 0
-0.000340 0.000000 0
-0.000309 0.000000 0
-0.000323 0.000000 0
-0.000366 0.000000 0
-0.000404 0.000000 0
-0.000382 0.000000 0
-0.000344 0.000000 0
-0.000312 0.000000 0
-0.000286 0.000000 0
-0.000267 0.000000 0
-0.000253 0.000000 0
-0.000242 0.000000 0
-0.000234 0.000000 0
-0.000229 0.000000 0
-0.000224 0.000000 0
-0.000221 0.000000 0
-0.000219 0.000000 0
-0.000217 0.000000 0
-0.000215 0.000000 0
-0.000214 0.000000 0
-0.000214 0.000000 0
-0.000213 0.000000 0
-0.000213 0.000000 0
-0.000213 0.000000 0
-0.000213 0.000000 0
-0.000214 0.000000 0
-0.000215 0.000000 0
1.000000 -0.004711 0
1.009975 -0.014634 0
1.030680 -0.025215 0
1.062385 -0.035778 0
1.104946 -0.045445 0
1.157285 -0.052765 0
1.216376 -0.055718 0
1.276998 -0.051819 0
1.328900 -0.040405 0
1.364411 -0.023760 0
1.380036 -0.004933 0
1.375915 0.013964 0
1.352862 0.031843 0
1.312626 0.048056 0
1.257159 0.062250 0
1.188702 0.074150 0
1.109821 0.083551 0
1.024489 0.090989 0
0.921823 0.093161 0
0.832927 0.080027 0
0.758906 0.049174 0
0.719566 0.000822 0
0.725323 -0.058008 0
0.782304 -0.122292 0
0.920114 -0.208514 0
1.165373 -0.274702 0
1.476898 -0.255988 0
1.725030 -0.170310 0
1.870372 -0.067805 0
1.910413 0.020237 0
1.866144 0.080913 0
1.767777 0.114802 0
1.643182 0.128930 0
1.512058 0.131259 0
1.387518 0.124401 0
1.276771 0.107316 0
1.179143 0.087452 0
1.096592 0.087926 0
1.043712 0.106779 0
1.000124 0.100151 0
0.958534 0.054134 0
0.915798 0.001122 0
0.867611 -0.020700 0
0.831215 -0.010931 0
0.810365 -0.001462 0
0.802573 -0.003809 0
0.811056 -0.008412 0
0.820686 -0.008927 0
0.827619 -0.007878 0
0.833850 -0.007369 0
0.841024 -0.007418 0
0.848831 -0.007474 0
0.856666 -0.007342 0
0.864248 -0.007087 0
0.871526 -0.006817 0
0.878503 -0.006567 0
0.885189 -0.006295 0
0.891626 -0.005982 0
0.897864 -0.005679 0
0.903881 -0.005428 0
0.909577 -0.005174 0
0.914888 -0.004838 0
0.919858 -0.004439 0
0.924584 -0.004089 0
0.929067 -0.003854 0
0.933189 -0.003647 0
0.936847 -0.003335 0
0.940085 -0.002910 0
0.943069 -0.002512 0
0.945964 -0.002304 0
0.948738 -0.002274 0
0.951220 -0.002230 0
0.953245 -0.001985 0
0.954792 -0.001507 0
0.956044 -0.000977 0
0.957267 -0.000684 0
0.958637 -0.000774 0
0.960159 -0.001128 0
0.961677 -0.001456 0
0.962955 -0.001447 0
0.964012 -0.001173 0
0.964877 -0.000904 0
0.965581 -0.000688 0
0.966152 -0.000523 0
0.966616 -0.000399 0
0.966993 -0.000306 0
0.967301 -0.000236 0
0.967553 -0.000183 0
0.967761 -0.000144 0
0.967932 -0.000114 0
0.968075 -0.000092 0
0.968194 -0.000075 0
0.968295 -0.000064 0
0.968382 -0.000055 0
0.968460 -0.000053 0
0.968532 -0.000052 0
0.968604 -0.000068 0
0.968687 -0.000084 0
0.968789 -0.000184 0
0.968943 -0.000358 0
0.969149 -0.000429 0
1.000000 -0.010005 0
1.010096 -0.030722 0
1.031560 -0.052436 0
1.064636 -0.074292 0
1.109918 -0.094925 0
1.167648 -0.111454 0
1.235470 -0.119738 0
1.311024 -0.112548 0
1.374452 -0.087437 0
1.415708 -0.051160 0
1.431944 -0.011527 0
1.427107 0.027151 0
1.402066 0.063267 0
1.359703 0.095683 0
1.302078 0.123905 0
1.231159 0.147320 0
1.148563 0.164196 0
1.053543 0.187982 0
0.971120 0.191546 0
0.870271 0.162904 0
0.762194 0.113349 0
0.701397 0.033570 0
0.664711 -0.062749 0
0.612536 -0.194801 0
0.631990 -0.383079 0
0.840509 -0.556793 0
1.201738 -0.559665 0
1.498855 -0.393482 0
1.711534 -0.185390 0
1.824279 0.004222 0
1.847301 0.142631 0
1.791507 0.222958 0
1.687639 0.255715 0
1.567721 0.255661 0
1.445664 0.235285 0
1.324705 0.208373 0
1.212627 0.180178 0
1.119296 0.135431 0
1.038204 0.096468 0
0.986868 0.085178 0
0.960906 0.084326 0
0.949488 0.090924 0
0.945413 0.084585 0
0.943655 0.057248 0
0.942385 0.028644 0
0.931989 -0.000688 0
0.904307 -0.018109 0
0.878306 -0.016560 0
0.863121 -0.013160 0
0.860170 -0.013402 0
0.866171 -0.014978 0
0.874991 -0.015637 0
0.883768 -0.015413 0
0.891901 -0.014856 0
0.899520 -0.014251 0
0.906826 -0.013659 0
0.913955 -0.013119 0
0.920968 -0.012671 0
0.927831 -0.012251 0
0.934438 -0.011709 0
0.940713 -0.011004 0
0.946676 -0.010278 0
0.952368 -0.009693 0
0.957751 -0.009206 0
0.962705 -0.008602 0
0.967154 -0.007777 0
0.971177 -0.006893 0
0.974940 -0.006220 0
0.978551 -0.005877 0
0.981945 -0.005667 0
0.984918 -0.005255 0
0.987347 -0.004504 0
0.989292 -0.003571 0
0.990995 -0.002798 0
0.992778 -0.002474 0
0.994757 -0.002592 0
0.996791 -0.002891 0
0.998646 -0.003039 0
1.000004 -0.002795 0
1.000953 -0.002334 0
1.001766 -0.001922 0
1.002494 -0.001569 0
1.003143 -0.001275 0
1.003713 -0.001034 0
1.004209 -0.000841 0
1.004636 -0.000685 0
1.005003 -0.000560 0
1.005316 -0.000460 0
1.005582 -0.000379 0
1.005808 -0.000314 0
1.005999 -0.000262 0
1.006162 -0.000221 0
1.006300 -0.000189 0
1.006418 -0.000165 0
1.006522 -0.000150 0
1.006612 -0.000145 0
1.006700 -0.000156 0
1.006772 -0.000185 0
1.006861 -0.000256 0
1.006874 -0.000361 0
1.006849 -0.000414 0
1.000000 -0.014827 0
1.008335 -0.046218 0
1.029548 -0.079762 0
1.062554 -0.114144 0
1.109594 -0.148465 0
1.173701 -0.178325 0
1.253410 -0.199101 0
1.362034 -0.190810 0
1.445129 -0.145097 0
1.491891 -0.081259 0
1.507642 -0.016339 0
1.498443 0.043835 0
1.466670 0.099240 0
1.417385 0.148037 0
1.352246 0.190788 0
1.275631 0.227660 0
1.191388 0.261162 0
1.101346 0.268427 0
0.981855 0.276428 0
0.800277 0.288950 0
0.748576 0.218044 0
0.693079 0.098302 0
0.550431 0.030851 0
0.362313 -0.089574 0
0.297824 -0.436489 0
0.405386 -0.844452 0
0.649159 -0.914336 0
1.061456 -0.680108 0
1.309774 -0.393231 0
1.488356 -0.115532 0
1.619470 0.113685 0
1.669721 0.274463 0
1.637189 0.352715 0
1.548557 0.373233 0
1.439030 0.367417 0
1.336880 0.340353 0
1.249806 0.292861 0
1.160039 0.262349 0
1.043271 0.239208 0
0.944845 0.177449 0
0.898159 0.091515 0
0.903696 0.016616 0
0.925531 -0.014865 0
0.934765 -0.007903 0
0.931780 0.010205 0
0.920126 0.034271 0
0.892405 0.045273 0
0.865602 0.032260 0
0.849757 0.010260 0
0.849331 -0.010418 0
0.861242 -0.022237 0
0.872587 -0.025068 0
0.881400 -0.024250 0
0.888806 -0.022837 0
0.895850 -0.021741 0
0.903030 -0.021001 0
0.910447 -0.020435 0
0.917971 -0.019856 0
0.925386 -0.019148 0
0.932540 -0.018309 0
0.939396 -0.017411 0
0.945949 -0.016492 0
0.952129 -0.015513 0
0.957794 -0.014424 0
0.962883 -0.013255 0
0.967509 -0.012118 0
0.971847 -0.011120 0
0.975979 -0.010283 0
0.979797 -0.009516 0
0.983075 -0.008670 0
0.985755 -0.007676 0
0.987977 -0.006604 0
0.990021 -0.005632 0
0.992163 -0.004992 0
0.994435 -0.004739 0
0.996640 -0.004697 0
0.998555 -0.004663 0
0.999932 -0.004340 0
1.000928 -0.003762 0
1.001813 -0.003209 0
1.002608 -0.002714 0
1.003320 -0.002281 0
1.003954 -0.001907 0
1.004512 -0.001589 0
1.004999 -0.001323 0
1.005420 -0.001100 0
1.005782 -0.000916 0
1.006091 -0.000763 0
1.006355 -0.000636 0
1.006578 -0.000532 0
1.006766 -0.000446 0
1.006926 -0.000376 0
1.007061 -0.000320 0
1.007175 -0.000277 0
1.007272 -0.000247 0
1.007355 -0.000230 0
1.007425 -0.000229 0
1.007482 -0.000246 0
1.007523 -0.000287 0
1.007525 -0.000347 0
1.007490 -0.000380 0
1.000000 -0.018357 0
1.002959 -0.060291 0
1.025008 -0.106662 0
1.055727 -0.154345 0
1.102067 -0.206078 0
1.170377 -0.255278 0
1.263098 -0.308077 0
1.442102 -0.304273 0
1.549210 -0.217302 0
1.594418 -0.113680 0
1.605453 -0.018085 0
1.591891 0.068117 0
1.557979 0.144319 0
1.502190 0.210101 0
1.424397 0.265654 0
1.332391 0.308173 0
1.229190 0.338477 0
1.109092 0.397512 0
0.990277 0.492612 0
1.030873 0.396178 0
0.773770 0.220543 0
0.494276 0.231712 0
0.328115 0.268015 0
0.296533 0.057804 0
0.391732 -0.426155 0
0.383640 -0.908130 0
0.371679 -1.215737 0
0.620722 -1.054098 0
0.926982 -0.612291 0
1.113585 -0.305475 0
1.248468 -0.038734 0
1.374660 0.205238 0
1.442855 0.376878 0
1.439683 0.453820 0
1.385209 0.446962 0
1.305321 0.397596 0
1.214726 0.357019 0
1.125748 0.341966 0
1.071645 0.311662 0
1.044695 0.230290 0
1.021728 0.125476 0
0.980588 0.063554 0
0.940991 0.053517 0
0.918181 0.051001 0
0.905390 0.043285 0
0.903093 0.038688 0
0.916212 0.036416 0
0.931142 0.026090 0
0.938044 0.003112 0
0.929903 -0.024885 0
0.909741 -0.038232 0
0.894505 -0.035793 0
0.887621 -0.031629 0
0.887399 -0.029305 0
0.891517 -0.028474 0
0.898192 -0.028255 0
0.906203 -0.028058 0
0.914722 -0.027608 0
0.923209 -0.026818 0
0.931378 -0.025717 0
0.939115 -0.024411 0
0.946342 -0.023010 0
0.952968 -0.021536 0
0.958943 -0.019959 0
0.964292 -0.018316 0
0.969156 -0.016740 0
0.973683 -0.015362 0
0.977882 -0.014169 0
0.981595 -0.012972 0
0.984668 -0.011625 0
0.987147 -0.010155 0
0.989322 -0.008769 0
0.991513 -0.007757 0
0.993876 -0.007212 0
0.996255 -0.006949 0
0.998291 -0.006712 0
0.999812 -0.006183 0
1.000874 -0.005411 0
1.001777 -0.004675 0
1.002570 -0.004014 0
1.003271 -0.003429 0
1.003891 -0.002915 0
1.004438 -0.002466 0
1.004919 -0.002079 0
1.005339 -0.001749 0
1.005703 -0.001469 0
1.006017 -0.001232 0
1.006286 -0.001033 0
1.006515 -0.000866 0
1.006710 -0.000726 0
1.006876 -0.000610 0
1.007016 -0.000515 0
1.007133 -0.000438 0
1.007232 -0.000376 0
1.007315 -0.000330 0
1.007382 -0.000299 0
1.007436 -0.000283 0
1.007474 -0.000283 0
1.007494 -0.000299 0
1.007487 -0.000328 0
1.007451 -0.000345 0
1.000000 -0.017802 0
1.000062 -0.071244 0
1.013442 -0.132536 0
1.037499 -0.191209 0
1.079779 -0.263121 0
1.139960 -0.339361 0
1.248335 -0.470832 0
1.564810 -0.476928 0
1.655264 -0.297420 0
1.663709 -0.137508 0
1.658041 -0.013818 0
1.649690 0.091303 0
1.636792 0.188936 0
1.605803 0.281615 0
1.543871 0.360582 0
1.448027 0.422862 0
1.325023 0.484458 0
1.193948 0.507337 0
1.140923 0.354644 0
1.023220 0.505453 0
0.621961 0.754638 0
0.429158 0.543955 0
0.404345 0.228592 0
0.535765 -0.153193 0
0.624560 -0.523598 0
0.570889 -0.824401 0
0.463393 -1.151420 0
0.411450 -1.235412 0
0.649084 -0.886095 0
0.854211 -0.437019 0
0.980200 -0.147391 0
1.080145 0.080076 0
1.163058 0.287692 0
1.232128 0.430879 0
1.243837 0.501779 0
1.204804 0.510837 0
1.151338 0.472435 0
1.113765 0.405430 0
1.100301 0.320261 0
1.095452 0.227367 0
1.070519 0.155623 0
1.016439 0.097355 0
0.965107 0.047543 0
0.930842 0.027699 0
0.912534 0.025294 0
0.902901 0.023451 0
0.901692 0.017226 0
0.905453 0.010430 0
0.906671 0.011500 0
0.897287 0.017887 0
0.878853 0.013163 0
0.867159 -0.002947 0
0.864693 -0.017143 0
0.869007 -0.026731 0
0.877347 -0.032531 0
0.887751 -0.035685 0
0.898931 -0.036964 0
0.910034 -0.036861 0
0.920571 -0.035802 0
0.930367 -0.034213 0
0.939387 -0.032373 0
0.947538 -0.030344 0
0.954697 -0.028113 0
0.960918 -0.025746 0
0.966511 -0.023467 0
0.971725 -0.021508 0
0.976562 -0.019845 0
0.980727 -0.018195 0
0.983988 -0.016301 0
0.986581 -0.014221 0
0.988922 -0.012330 0
0.991391 -0.010969 0
0.994098 -0.010185 0
0.996613 -0.009733 0
0.998707 -0.009153 0
1.000187 -0.008253 0
1.001205 -0.007246 0
1.002062 -0.006305 0
1.002812 -0.005457 0
1.003472 -0.004703 0
1.004052 -0.004035 0
1.004561 -0.003448 0
1.005008 -0.002935 0
1.005400 -0.002490 0
1.005742 -0.002106 0
1.006039 -0.001778 0
1.006296 -0.001499 0
1.006517 -0.001261 0
1.006707 -0.001061 0
1.006868 -0.000892 0
1.007005 -0.000751 0
1.007121 -0.000634 0
1.007218 -0.000537 0
1.007298 -0.000459 0
1.007364 -0.000397 0
1.007416 -0.000352 0
1.007454 -0.000321 0
1.007477 -0.000304 0
1.007482 -0.000299 0
1.007467 -0.000304 0
1.007429 -0.000307 0
1.000000 -0.018432 0
1.002987 -0.073748 0
1.002312 -0.144103 0
1.006748 -0.220686 0
1.041558 -0.308543 0
1.062916 -0.423838 0
1.221503 -0.732933 0
1.593639 -0.711208 0
1.503746 -0.316207 0
1.400774 -0.116464 0
1.371785 -0.004072 0
1.386626 0.089361 0
1.436136 0.188201 0
1.485348 0.303018 0
1.522013 0.423427 0
1.503042 0.527018 0
1.434225 0.592553 0
1.327968 0.581609 0
1.156295 0.663338 0
0.730144 0.915138 0
0.701746 0.814602 0
0.831563 0.449326 0
0.757951 0.161406 0
0.641462 -0.162413 0
0.550541 -0.461280 0
0.531885 -0.746964 0
0.484052 -1.056299 0
0.390093 -1.239789 0
0.443832 -1.055053 0
0.631452 -0.636592 0
0.798548 -0.264668 0
0.903234 0.022379 0
0.990032 0.224894 0
1.068654 0.373041 0
1.122567 0.474286 0
1.130299 0.490096 0
1.108676 0.448060 0
1.096289 0.393005 0
1.099535 0.329975 0
1.084403 0.260073 0
1.039786 0.204491 0
0.989329 0.168967 0
0.930220 0.139116 0
0.874329 0.103575 0
0.831222 0.071227 0
0.798572 0.049531 0
0.774593 0.033866 0
0.757731 0.021113 0
0.750783 0.011280 0
0.758304 0.002935 0
0.778731 -0.008102 0
0.800142 -0.021632 0
0.820458 -0.033475 0
0.839897 -0.041957 0
0.858433 -0.047217 0
0.875755 -0.049837 0
0.891653 -0.050340 0
0.906198 -0.049247 0
0.919500 -0.047149 0
0.931398 -0.044532 0
0.941625 -0.041581 0
0.950229 -0.038318 0
0.957664 -0.034914 0
0.964420 -0.031771 0
0.970647 -0.029122 0
0.976093 -0.026790 0
0.980457 -0.024363 0
0.983780 -0.021594 0
0.986515 -0.018825 0
0.989352 -0.016557 0
0.992474 -0.014964 0
0.995344 -0.013946 0
0.997912 -0.012979 0
0.999790 -0.011821 0
1.001068 -0.010523 0
1.001990 -0.009209 0
1.002757 -0.008058 0
1.003419 -0.007018 0
1.003995 -0.006084 0
1.004496 -0.005253 0
1.004933 -0.004518 0
1.005316 -0.003871 0
1.005651 -0.003305 0
1.005944 -0.002813 0
1.006200 -0.002388 0
1.006423 -0.002023 0
1.006617 -0.001710 0
1.006784 -0.001443 0
1.006928 -0.001216 0
1.007052 -0.001025 0
1.007157 -0.000863 0
1.007245 -0.000728 0
1.007319 -0.000615 0
1.007380 -0.000523 0
1.007428 -0.000448 0
1.007463 -0.000389 0
1.007486 -0.000344 0
1.007496 -0.000311 0
1.007491 -0.000290 0
1.007469 -0.000275 0
1.007429 -0.000268 0
1.000000 -0.020800 0
1.001592 -0.073569 0
0.995858 -0.136300 0
0.976362 -0.230457 0
0.992865 -0.319292 0
0.966154 -0.519310 0
1.078044 -1.001558 0
0.773930 -0.654614 0
-0.002123 0.000000 0
-0.003839 0.000000 0
0.542108 0.005878 0
0.561308 0.026947 0
0.717821 0.090209 0
0.847938 0.195734 0
1.133116 0.342886 0
1.207083 0.510648 0
1.305263 0.659529 0
1.282033 0.785265 0
1.118102 0.952467 0
1.030270 0.960001 0
1.144531 0.653217 0
0.960701 0.487748 0
0.681009 0.418691 0
0.504693 0.054217 0
0.451616 -0.414022 0
0.475357 -0.757912 0
0.479459 -1.009628 0
0.399665 -1.195193 0
0.366995 -1.127455 0
0.490555 -0.791734 0
0.612245 -0.419173 0
0.719553 -0.111409 0
0.806166 0.122273 0
0.850682 0.298343 0
0.870456 0.440134 0
0.873294 0.524728 0
0.894116 0.506445 0
0.927437 0.414572 0
0.938945 0.332148 0
0.916758 0.287118 0
0.884402 0.250699 0
0.859969 0.206922 0
0.841942 0.162545 0
0.817501 0.126698 0
0.782195 0.101053 0
0.746852 0.080082 0
0.720828 0.058068 0
0.707985 0.034241 0
0.708932 0.010928 0
0.722588 -0.010058 0
0.745517 -0.028673 0
0.771989 -0.044672 0
0.798992 -0.056896 0
0.825187 -0.064705 0
0.849728 -0.068387 0
0.872055 -0.068903 0
0.891804 -0.067406 0
0.908938 -0.064706 0
0.923639 -0.061001 0
0.936142 -0.056337 0
0.946841 -0.051202 0
0.956163 -0.046381 0
0.964284 -0.042303 0
0.971094 -0.038729 0
0.976464 -0.035139 0
0.980823 -0.031316 0
0.984733 -0.027530 0
0.988407 -0.024252 0
0.991736 -0.021873 0
0.995023 -0.020179 0
0.997897 -0.018320 0
1.000078 -0.016407 0
1.001551 -0.014631 0
1.002583 -0.012889 0
1.003310 -0.011353 0
1.003946 -0.009941 0
1.004473 -0.008675 0
1.004913 -0.007542 0
1.005287 -0.006534 0
1.005607 -0.005642 0
1.005884 -0.004855 0
1.006126 -0.004165 0
1.006338 -0.003562 0
1.006524 -0.003039 0
1.006689 -0.002586 0
1.006833 -0.002195 0
1.006960 -0.001860 0
1.007072 -0.001573 0
1.007168 -0.001329 0
1.007252 -0.001121 0
1.007323 -0.000945 0
1.007383 -0.000796 0
1.007433 -0.000671 0
1.007473 -0.000567 0
1.007503 -0.000481 0
1.007523 -0.000411 0
1.007532 -0.000354 0
1.007531 -0.000308 0
1.007516 -0.000272 0
1.007489 -0.000242 0
1.007446 -0.000227 0
1.000000 -0.020033 0
0.999094 -0.069615 0
0.977101 -0.118874 0
0.975602 -0.217695 0
0.908787 -0.298337 0
0.895972 -0.509018 0
0.653617 -0.645272 0
0.000000 -0.001401 0
-0.655144 0.284787 0
-0.566120 0.000000 0
0.000000 0.000000 0
0.003426 -0.088808 0
0.017046 -0.098432 0
0.070368 -0.112280 0
0.728295 0.064280 0
0.808008 0.354869 0
0.861347 0.517602 0
1.019899 0.768769 0
1.113342 0.915099 0
1.180414 0.888708 0
1.079562 0.884171 0
0.678156 0.912848 0
0.495789 0.617413 0
0.518128 0.066980 0
0.527714 -0.431945 0
0.518033 -0.774807 0
0.513516 -0.980608 0
0.459577 -1.127326 0
0.376983 -1.145943 0
0.427254 -0.881842 0
0.523403 -0.493666 0
0.623326 -0.171542 0
0.697080 0.093765 0
0.723494 0.308752 0
0.740450 0.451675 0
0.804188 0.466436 0
0.873240 0.393918 0
0.877991 0.348177 0
0.837444 0.340655 0
0.811205 0.314616 0
0.811038 0.261280 0
0.810437 0.211429 0
0.788907 0.181586 0
0.748885 0.163323 0
0.706394 0.141877 0
0.675883 0.110900 0
0.663001 0.072735 0
0.666891 0.033010 0
0.684295 -0.003321 0
0.711138 -0.033648 0
0.743154 -0.057501 0
0.776576 -0.075105 0
0.808860 -0.086673 0
0.838595 -0.092690 0
0.865088 -0.094083 0
0.888277 -0.091911 0
0.907939 -0.087221 0
0.924514 -0.081080 0
0.938283 -0.074352 0
0.949511 -0.067733 0
0.958797 -0.061601 0
0.966954 -0.055760 0
0.974398 -0.049843 0
0.980358 -0.043950 0
0.984852 -0.038850 0
0.988734 -0.035058 0
0.992827 -0.031947 0
0.996430 -0.028596 0
0.999422 -0.025441 0
1.001609 -0.022717 0
1.003013 -0.020018 0
1.004103 -0.017599 0
1.004793 -0.015484 0
1.005350 -0.013579 0
1.005745 -0.011886 0
1.006046 -0.010371 0
1.006278 -0.009025 0
1.006461 -0.007832 0
1.006610 -0.006778 0
1.006736 -0.005851 0
1.006844 -0.005036 0
1.006941 -0.004324 0
1.007028 -0.003703 0
1.007108 -0.003164 0
1.007182 -0.002697 0
1.007249 -0.002295 0
1.007310 -0.001948 0
1.007366 -0.001651 0
1.007415 -0.001397 0
1.007459 -0.001180 0
1.007497 -0.000995 0
1.007529 -0.000838 0
1.007555 -0.000705 0
1.007575 -0.000593 0
1.007587 -0.000498 0
1.007593 -0.000418 0
1.007590 -0.000352 0
1.007577 -0.000296 0
1.007555 -0.000248 0
1.007522 -0.000205 0
1.007477 -0.000183 0
1.000000 -0.019900 0
0.991856 -0.050675 0
0.968381 -0.112808 0
0.956284 -0.162143 0
0.872091 -0.239661 0
0.820279 -0.264139 0
0.490985 -0.196141 0
0.318011 -0.091553 0
0.000000 0.000000 0
0.000000 0.000000 0
0.000000 0.000000 0
0.000000 0.000000 0
-0.096256 0.015816 0
-0.094280 -0.515518 0
-0.081470 -0.394755 0
0.361790 0.377595 0
0.483526 0.447638 0
0.674574 0.533270 0
0.848496 0.791952 0
0.889301 0.993780 0
0.688968 1.155474 0
0.457596 1.071521 0
0.540941 0.578720 0
0.661196 0.022292 0
0.689833 -0.413927 0
0.648002 -0.743715 0
0.602927 -0.951174 0
0.567319 -1.058660 0
0.474077 -1.095132 0
0.425673 -0.938154 0
0.472495 -0.615245 0
0.550372 -0.285085 0
0.640790 0.022105 0
0.724283 0.254974 0
0.805810 0.359440 0
0.860622 0.391939 0
0.836131 0.432643 0
0.773204 0.450370 0
0.755103 0.398935 0
0.784775 0.313525 0
0.805749 0.251468 0
0.786860 0.229055 0
0.739293 0.224099 0
0.689330 0.209212 0
0.654445 0.174056 0
0.640015 0.123477 0
0.644959 0.067062 0
0.665471 0.012949 0
0.697526 -0.033317 0
0.736587 -0.068915 0
0.777815 -0.094109 0
0.817670 -0.110376 0
0.854060 -0.118914 0
0.885821 -0.120931 0
0.911850 -0.118067 0