# vtk DataFile Version 2.0
generated by CFD-lab course output (written by Tobias Neckel) 
ASCII

DATASET STRUCTURED_GRID
DIMENSIONS  101 21 1 
POINTS 2121 float

0.000000 0.000000 0
0.100000 0.000000 0
0.200000 0.000000 0
0.300000 0.000000 0
0.400000 0.000000 0
0.500000 0.000000 0
0.600000 0.000000 0
0.700000 0.000000 0
0.800000 0.000000 0
0.900000 0.000000 0
1.000000 0.000000 0
1.100000 0.000000 0
1.200000 0.000000 0
1.300000 0.000000 0
1.400000 0.000000 0
1.500000 0.000000 0
1.600000 0.000000 0
1.700000 0.000000 0
1.800000 0.000000 0
1.900000 0.000000 0
2.000000 0.000000 0
2.100000 0.000000 0
2.200000 0.000000 0
2.300000 0.000000 0
2.400000 0.000000 0
2.500000 0.000000 0
2.600000 0.000000 0
2.700000 0.000000 0
2.800000 0.000000 0
2.900000 0.000000 0
3.000000 0.000000 0
3.100000 0.000000 0
3.200000 0.000000 0
3.300000 0.000000 0
3.400000 0.000000 0
3.500000 0.000000 0
3.600000 0.000000 0
3.700000 0.000000 0
3.800000 0.000000 0
3.900000 0.000000 0
4.000000 0.000000 0
4.100000 0.000000 0
4.200000 0.000000 0
4.300000 0.000000 0
4.400000 0.000000 0
4.500000 0.000000 0
4.600000 0.000000 0
4.700000 0.000000 0
4.800000 0.000000 0
4.900000 0.000000 0
5.000000 0.000000 0
5.100000 0.000000 0
5.200000 0.000000 0
5.300000 0.000000 0
5.400000 0.000000 0
5.500000 0.000000 0
5.600000 0.000000 0
5.700000 0.000000 0
5.800000 0.000000 0
5.900000 0.000000 0
6.000000 0.000000 0
6.100000 0.000000 0
6.200000 0.000000 0
6.300000 0.000000 0
6.400000 0.000000 0
6.500000 0.000000 0
6.600000 0.000000 0
6.700000 0.000000 0
6.800000 0.000000 0
6.900000 0.000000 0
7.000000 0.000000 0
7.100000 0.000000 0
7.200000 0.000000 0
7.300000 0.000000 0
7.400000 0.000000 0
7.500000 0.000000 0
7.600000 0.000000 0
7.700000 0.000000 0
7.800000 0.000000 0
7.900000 0.000000 0
8.000000 0.000000 0
8.100000 0.000000 0
8.200000 0.000000 0
8.300000 0.000000 0
8.400000 0.000000 0
8.500000 0.000000 0
8.600000 0.000000 0
8.700000 0.000000 0
8.800000 0.000000 0
8.900000 0.000000 0
9.000000 0.000000 0
9.100000 0.000000 0
9.200000 0.000000 0
9.300000 0.000000 0
9.400000 0.000000 0
9.500000 0.000000 0
9.600000 0.000000 0
9.700000 0.000000 0
9.800000 0.000000 0
9.900000 0.000000 0
10.000000 0.000000 0
0.000000 0.100000 0
0.100000 0.100000 0
0.200000 0.100000 0
0.300000 0.100000 0
0.400000 0.100000 0
0.500000 0.100000 0
0.600000 0.100000 0
0.700000 0.100000 0
0.800000 0.100000 0
0.900000 0.100000 0
1.000000 0.100000 0
1.100000 0.100000 0
1.200000 0.100000 0
1.300000 0.100000 0
1.400000 0.100000 0
1.500000 0.100000 0
1.600000 0.100000 0
1.700000 0.100000 0
1.800000 0.100000 0
1.900000 0.100000 0
2.000000 0.100000 0
2.100000 0.100000 0
2.200000 0.100000 0
2.300000 0.100000 0
2.400000 0.100000 0
2.500000 0.100000 0
2.600000 0.100000 0
2.700000 0.100000 0
2.800000 0.100000 0
2.900000 0.100000 0
3.000000 0.100000 0
3.100000 0.100000 0
3.200000 0.100000 0
3.300000 0.100000 0
3.400000 0.100000 0
3.500000 0.100000 0
3.600000 0.100000 0
3.700000 0.100000 0
3.800000 0.100000 0
3.900000 0.100000 0
4.000000 0.100000 0
4.100000 0.100000 0
4.200000 0.100000 0
4.300000 0.100000 0
4.400000 0.100000 0
4.500000 0.100000 0
4.600000 0.100000 0
4.700000 0.100000 0
4.800000 0.100000 0
4.900000 0.100000 0
5.000000 0.100000 0
5.100000 0.100000 0
5.200000 0.100000 0
5.300000 0.100000 0
5.400000 0.100000 0
5.500000 0.100000 0
5.600000 0.100000 0
5.700000 0.100000 0
5.800000 0.100000 0
5.900000 0.100000 0
6.000000 0.100000 0
6.100000 0.100000 0
6.200000 0.100000 0
6.300000 0.100000 0
6.400000 0.100000 0
6.500000 0.100000 0
6.600000 0.100000 0
6.700000 0.100000 0
6.800000 0.100000 0
6.900000 0.100000 0
7.000000 0.100000 0
7.100000 0.100000 0
7.200000 0.100000 0
7.300000 0.100000 0
7.400000 0.100000 0
7.500000 0.100000 0
7.600000 0.100000 0
7.700000 0.100000 0
7.800000 0.100000 0
7.900000 0.100000 0
8.000000 0.100000 0
8.100000 0.100000 0
8.200000 0.100000 0
8.300000 0.100000 0
8.400000 0.100000 0
8.500000 0.100000 0
8.600000 0.100000 0
8.700000 0.100000 0
8.800000 0.100000 0
8.900000 0.100000 0
9.000000 0.100000 0
9.100000 0.100000 0
9.200000 0.100000 0
9.300000 0.100000 0
9.400000 0.100000 0
9.500000 0.100000 0
9.600000 0.100000 0
9.700000 0.100000 0
9.800000 0.100000 0
9.900000 0.100000 0
10.000000 0.100000 0
0.000000 0.200000 0
0.100000 0.200000 0
0.200000 0.200000 0
0.300000 0.200000 0
0.400000 0.200000 0
0.500000 0.200000 0
0.600000 0.200000 0
0.700000 0.200000 0
0.800000 0.200000 0
0.900000 0.200000 0
1.000000 0.200000 0
1.100000 0.200000 0
1.200000 0.200000 0
1.300000 0.200000 0
1.400000 0.200000 0
1.500000 0.200000 0
1.600000 0.200000 0
1.700000 0.200000 0
1.800000 0.200000 0
1.900000 0.200000 0
2.000000 0.200000 0
2.100000 0.200000 0
2.200000 0.200000 0
2.300000 0.200000 0
2.400000 0.200000 0
2.500000 0.200000 0
2.600000 0.200000 0
2.700000 0.200000 0
2.800000 0.200000 0
2.900000 0.200000 0
3.000000 0.200000 0
3.100000 0.200000 0
3.200000 0.200000 0
3.300000 0.200000 0
3.400000 0.200000 0
3.500000 0.200000 0
3.600000 0.200000 0
3.700000 0.200000 0
3.800000 0.200000 0
3.900000 0.200000 0
4.000000 0.200000 0
4.100000 0.200000 0
4.200000 0.200000 0
4.300000 0.200000 0
4.400000 0.200000 0
4.500000 0.200000 0
4.600000 0.200000 0
4.700000 0.200000 0
4.800000 0.200000 0
4.900000 0.200000 0
5.000000 0.200000 0
5.100000 0.200000 0
5.200000 0.200000 0
5.300000 0.200000 0
5.400000 0.200000 0
5.500000 0.200000 0
5.600000 0.200000 0
5.700000 0.200000 0
5.800000 0.200000 0
5.900000 0.200000 0
6.000000 0.200000 0
6.100000 0.200000 0
6.200000 0.200000 0
6.300000 0.200000 0
6.400000 0.200000 0
6.500000 0.200000 0
6.600000 0.200000 0
6.700000 0.200000 0
6.800000 0.200000 0
6.900000 0.200000 0
7.000000 0.200000 0
7.100000 0.200000 0
7.200000 0.200000 0
7.300000 0.200000 0
7.400000 0.200000 0
7.500000 0.200000 0
7.600000 0.200000 0
7.700000 0.200000 0
7.800000 0.200000 0
7.900000 0.200000 0
8.000000 0.200000 0
8.100000 0.200000 0
8.200000 0.200000 0
8.300000 0.200000 0
8.400000 0.200000 0
8.500000 0.200000 0
8.600000 0.200000 0
8.700000 0.200000 0
8.800000 0.200000 0
8.900000 0.200000 0
9.000000 0.200000 0
9.100000 0.200000 0
9.200000 0.200000 0
9.300000 0.200000 0
9.400000 0.200000 0
9.500000 0.200000 0
9.600000 0.200000 0
9.700000 0.200000 0
9.800000 0.200000 0
9.900000 0.200000 0
10.000000 0.200000 0
0.000000 0.300000 0
0.100000 0.300000 0
0.200000 0.300000 0
0.300000 0.300000 0
0.400000 0.300000 0
0.500000 0.300000 0
0.600000 0.300000 0
0.700000 0.300000 0
0.800000 0.300000 0
0.900000 0.300000 0
1.000000 0.300000 0
1.100000 0.300000 0
1.200000 0.300000 0
1.300000 0.300000 0
1.400000 0.300000 0
1.500000 0.300000 0
1.600000 0.300000 0
1.700000 0.300000 0
1.800000 0.300000 0
1.900000 0.300000 0
2.000000 0.300000 0
2.100000 0.300000 0
2.200000 0.300000 0
2.300000 0.300000 0
2.400000 0.300000 0
2.500000 0.300000 0
2.600000 0.300000 0
2.700000 0.300000 0
2.800000 0.300000 0
2.900000 0.300000 0
3.000000 0.300000 0
3.100000 0.300000 0
3.200000 0.300000 0
3.300000 0.300000 0
3.400000 0.300000 0
3.500000 0.300000 0
3.600000 0.300000 0
3.700000 0.300000 0
3.800000 0.300000 0
3.900000 0.300000 0
4.000000 0.300000 0
4.100000 0.300000 0
4.200000 0.300000 0
4.300000 0.300000 0
4.400000 0.300000 0
4.500000 0.300000 0
4.600000 0.300000 0
4.700000 0.300000 0
4.800000 0.300000 0
4.900000 0.300000 0
5.000000 0.300000 0
5.100000 0.300000 0
5.200000 0.300000 0
5.300000 0.300000 0
5.400000 0.300000 0
5.500000 0.300000 0
5.600000 0.300000 0
5.700000 0.300000 0
5.800000 0.300000 0
5.900000 0.300000 0
6.000000 0.300000 0
6.100000 0.300000 0
6.200000 0.300000 0
6.300000 0.300000 0
6.400000 0.300000 0
6.500000 0.300000 0
6.600000 0.300000 0
6.700000 0.300000 0
6.800000 0.300000 0
6.900000 0.300000 0
7.000000 0.300000 0
7.100000 0.300000 0
7.200000 0.300000 0
7.300000 0.300000 0
7.400000 0.300000 0
7.500000 0.300000 0
7.600000 0.300000 0
7.700000 0.300000 0
7.800000 0.300000 0
7.900000 0.300000 0
8.000000 0.300000 0
8.100000 0.300000 0
8.200000 0.300000 0
8.300000 0.300000 0
8.400000 0.300000 0
8.500000 0.300000 0
8.600000 0.300000 0
8.700000 0.300000 0
8.800000 0.300000 0
8.900000 0.300000 0
9.000000 0.300000 0
9.100000 0.300000 0
9.200000 0.300000 0
9.300000 0.300000 0
9.400000 0.300000 0
9.500000 0.300000 0
9.600000 0.300000 0
9.700000 0.300000 0
9.800000 0.300000 0
9.900000 0.300000 0
10.000000 0.300000 0
0.000000 0.400000 0
0.100000 0.400000 0
0.200000 0.400000 0
0.300000 0.400000 0
0.400000 0.400000 0
0.500000 0.400000 0
0.600000 0.400000 0
0.700000 0.400000 0
0.800000 0.400000 0
0.900000 0.400000 0
1.000000 0.400000 0
1.100000 0.400000 0
1.200000 0.400000 0
1.300000 0.400000 0
1.400000 0.400000 0
1.500000 0.400000 0
1.600000 0.400000 0
1.700000 0.400000 0
1.800000 0.400000 0
1.900000 0.400000 0
2.000000 0.400000 0
2.100000 0.400000 0
2.200000 0.400000 0
2.300000 0.400000 0
2.400000 0.400000 0
2.500000 0.400000 0
2.600000 0.400000 0
2.700000 0.400000 0
2.800000 0.400000 0
2.900000 0.400000 0
3.000000 0.400000 0
3.100000 0.400000 0
3.200000 0.400000 0
3.300000 0.400000 0
3.400000 0.400000 0
3.500000 0.400000 0
3.600000 0.400000 0
3.700000 0.400000 0
3.800000 0.400000 0
3.900000 0.400000 0
4.000000 0.400000 0
4.100000 0.400000 0
4.200000 0.400000 0
4.300000 0.400000 0
4.400000 0.400000 0
4.500000 0.400000 0
4.600000 0.400000 0
4.700000 0.400000 0
4.800000 0.400000 0
4.900000 0.400000 0
5.000000 0.400000 0
5.100000 0.400000 0
5.200000 0.400000 0
5.300000 0.400000 0
5.400000 0.400000 0
5.500000 0.400000 0
5.600000 0.400000 0
5.700000 0.400000 0
5.800000 0.400000 0
5.900000 0.400000 0
6.000000 0.400000 0
6.100000 0.400000 0
6.200000 0.400000 0
6.300000 0.400000 0
6.400000 0.400000 0
6.500000 0.400000 0
6.600000 0.400000 0
6.700000 0.400000 0
6.800000 0.400000 0
6.900000 0.400000 0
7.000000 0.400000 0
7.100000 0.400000 0
7.200000 0.400000 0
7.300000 0.400000 0
7.400000 0.400000 0
7.500000 0.400000 0
7.600000 0.400000 0
7.700000 0.400000 0
7.800000 0.400000 0
7.900000 0.400000 0
8.000000 0.400000 0
8.100000 0.400000 0
8.200000 0.400000 0
8.300000 0.400000 0
8.400000 0.400000 0
8.500000 0.400000 0
8.600000 0.400000 0
[...]
POINT_DATA 2121 

VECTORS velocity float
0.500000 0.000000 0
0.000048 0.000000 0
0.000138 0.000000 0
0.000259 0.000000 0
0.000388 0.000000 0
0.000503 0.000000 0
0.000585 0.000000 0
0.000601 0.000000 0
0.000509 0.000000 0
0.000298 0.000000 0
-0.000007 0.000000 0
-0.000356 0.000000 0
-0.000710 0.000000 0
-0.001086 0.000000 0
-0.001544 0.000000 0
-0.002108 0.000000 0
-0.002697 0.000000 0
-0.003144 0.000000 0
-0.003214 0.000000 0
-0.002655 0.000000 0
-0.001463 0.000000 0
-0.000003 0.000000 0
0.001465 0.000000 0
0.002748 0.000000 0
0.003721 0.000000 0
0.004134 0.000000 0
0.003742 0.000000 0
0.002179 0.000000 0
-0.000239 0.000000 0
0.010401 0.000000 0
-0.004259 0.000000 0
-0.024973 0.000000 0
0.053636 0.000000 0
0.041103 0.000000 0
0.005066 0.000000 0
-0.009246 0.000000 0
-0.019115 0.000000 0
-0.018936 0.000000 0
-0.014875 0.000000 0
-0.011430 0.000000 0
-0.005625 0.000000 0
-0.000057 0.000000 0
0.005502 0.000000 0
0.019557 0.000000 0
0.039008 0.000000 0
0.021721 0.000000 0
0.003614 0.000000 0
-0.005230 0.000000 0
-0.006000 0.000000 0
-0.002554 0.000000 0
0.001605 0.000000 0
0.003689 0.000000 0
0.002679 0.000000 0
0.000543 0.000000 0
-0.001507 0.000000 0
-0.003262 0.000000 0
-0.004258 0.000000 0
-0.004208 0.000000 0
-0.003435 0.000000 0
-0.002710 0.000000 0
-0.001946 0.000000 0
-0.001471 0.000000 0
-0.001484 0.000000 0
-0.001937 0.000000 0
-0.002681 0.000000 0
-0.003613 0.000000 0
-0.004618 0.000000 0
-0.005677 0.000000 0
-0.006796 0.000000 0
-0.007636 0.000000 0
-0.007802 0.000000 0
-0.007084 0.000000 0
-0.005985 0.000000 0
-0.005499 0.000000 0
-0.007700 0.000000 0
-0.008725 0.000000 0
-0.010005 0.000000 0
-0.011275 0.000000 0
-0.012293 0.000000 0
-0.012820 0.000000 0
-0.012257 0.000000 0
-0.010458 0.000000 0
-0.006411 0.000000 0
0.000640 0.000000 0
0.009168 0.000000 0
0.021181 0.000000 0
0.029991 0.000000 0
0.028735 0.000000 0
0.027623 0.000000 0
0.019095 0.000000 0
0.006777 0.000000 0
0.002238 0.000000 0
0.000937 0.000000 0
0.000318 0.000000 0
0.002439 0.000000 0
0.006315 0.000000 0
0.008570 0.000000 0
0.008350 0.000000 0
0.007477 0.000000 0
0.006570 0.000000 0
0.006170 0.000000 0
1.000000 -0.003080 0
1.006727 -0.009532 0
1.020355 -0.016413 0
1.041109 -0.023485 0
1.069260 -0.030439 0
1.104775 -0.036497 0
1.146335 -0.040387 0
1.191089 -0.040629 0
1.233465 -0.036861 0
1.269343 -0.030411 0
1.297199 -0.022899 0
1.317044 -0.015360 0
1.329195 -0.008473 0
1.334321 -0.003249 0
1.334751 -0.001021 0
1.334835 -0.002383 0
1.338901 -0.006382 0
1.349181 -0.010765 0
1.365016 -0.012519 0
1.381743 -0.008785 0
1.390952 0.001053 0
1.386069 0.014573 0
1.365744 0.028569 0
1.330946 0.040690 0
1.284862 0.048944 0
1.232819 0.050785 0
1.177883 0.042806 0
1.121415 0.014827 0
1.112400 -0.011411 0
1.270572 0.015120 0
1.368732 -0.088154 0
1.007054 -0.069540 0
0.613249 0.284408 0
0.358626 0.328107 0
0.318981 0.061966 0
0.377501 -0.092875 0
0.458266 -0.166068 0
0.646329 -0.179262 0
0.886022 -0.141661 0
1.083167 -0.100328 0
1.182506 -0.050630 0
1.200479 0.005243 0
1.188122 0.065154 0
1.120623 0.242941 0
0.910352 0.404098 0
0.683745 0.289851 0
0.546887 0.061670 0
0.487212 -0.065047 0
0.477612 -0.083833 0
0.476545 -0.042177 0
0.444034 0.014274 0
0.386109 0.046789 0
0.341649 0.035937 0
0.324192 0.002160 0
0.325621 -0.029231 0
0.346951 -0.051195 0
0.389282 -0.060579 0
0.442434 -0.055133 0
0.492115 -0.040763 0
0.530346 -0.024672 0
0.556250 -0.010193 0
0.571970 -0.000337 0
0.581076 0.002986 0
0.587880 0.000294 0
0.595382 -0.006609 0
0.606157 -0.016196 0
0.622167 -0.026476 0
0.646518 -0.037491 0
0.681763 -0.048739 0
0.729419 -0.057114 0
0.787506 -0.059328 0
0.852445 -0.054404 0
0.915885 -0.046028 0
0.971128 -0.043917 0
1.020631 -0.051767 0
1.073740 -0.061153 0
1.133206 -0.069162 0
1.201889 -0.077260 0
1.279715 -0.083552 0
1.361684 -0.085235 0
1.440164 -0.078833 0
1.507064 -0.061729 0
1.553520 -0.029280 0
1.568094 0.021459 0
1.535315 0.089640 0
1.440474 0.171994 0
1.287253 0.222056 0
1.072556 0.195691 0
0.790316 0.163618 0
0.615039 0.124633 0
0.594736 0.058497 0
0.655991 0.028358 0
0.698286 0.018935 0
0.688125 0.011265 0
0.625525 0.021337 0
0.531035 0.047975 0
0.435915 0.061440 0
0.368452 0.054709 0
0.319159 0.037405 0
0.293521 0.019282 0
0.280493 0.012728 0
1.000000 -0.006727 0
1.006844 -0.020356 0
1.020724 -0.034383 0
1.041887 -0.048904 0
1.071197 -0.063665 0
1.109869 -0.077074 0
1.156933 -0.086312 0
1.210712 -0.087127 0
1.260217 -0.078250 0
1.299653 -0.063730 0
1.328803 -0.047696 0
1.349299 -0.031991 0
1.361440 -0.017271 0
1.364262 -0.005549 0
1.359765 -0.000507 0
1.355021 -0.004143 0
1.357298 -0.014338 0
1.370210 -0.026107 0
1.394263 -0.032554 0
1.424008 -0.025927 0
1.444138 -0.004317 0
1.443079 0.025217 0
1.422755 0.055132 0
1.385888 0.080892 0
1.337575 0.098137 0
1.281319 0.106988 0
1.218413 0.111414 0
1.150927 0.065493 0
1.074823 -0.149147 0
1.049175 -0.256322 0
0.839215 0.263529 0
0.354972 0.755492 0
0.290293 0.648437 0
0.578682 0.294278 0
0.523541 -0.018865 0
0.273381 -0.139275 0
0.187136 -0.268818 0
0.254067 -0.427746 0
0.477492 -0.436828 0
0.731606 -0.296474 0
0.903680 -0.117303 0
0.993849 -0.005606 0
1.009357 0.079865 0
0.960754 0.277779 0
0.967763 0.436887 0
0.990634 0.363473 0
0.931221 0.196542 0
0.826088 0.069284 0
0.731216 0.010676 0
0.607318 0.033587 0
0.513878 0.090444 0
0.486602 0.102392 0
0.471842 0.061924 0
0.421032 0.016036 0
0.360070 -0.022751 0
0.327465 -0.063654 0
0.325144 -0.095478 0
0.349419 -0.102827 0
0.386155 -0.087906 0
0.422302 -0.064130 0
0.454523 -0.041618 0
0.482535 -0.024822 0
0.505248 -0.015907 0
0.523570 -0.014303 0
0.541112 -0.018275 0
0.559899 -0.026783 0
0.581812 -0.040360 0
0.609584 -0.059595 0
0.644323 -0.082901 0
0.687874 -0.105744 0
0.737971 -0.123027 0
0.798899 -0.128380 0
0.865449 -0.118685 0
0.932774 -0.104749 0
0.991646 -0.102616 0
1.037317 -0.112580 0
1.083726 -0.128155 0
1.142191 -0.146515 0
1.214811 -0.159802 0
1.292157 -0.160457 0
1.360927 -0.145388 0
1.412964 -0.113365 0
1.445008 -0.061040 0
1.457115 0.018194 0
1.443746 0.127609 0
1.400747 0.248051 0
1.328588 0.367905 0
1.179441 0.496924 0
0.960882 0.457504 0
0.836845 0.195566 0
0.804610 -0.040967 0
0.869076 -0.103565 0
0.916655 -0.032149 0
0.860681 0.072746 0
0.725578 0.157074 0
0.587769 0.189594 0
0.487212 0.162566 0
0.433770 0.116739 0
0.390335 0.074915 0
0.350851 0.038649 0
0.337364 0.025235 0
1.000000 -0.009924 0
1.005475 -0.030257 0
1.018085 -0.051457 0
1.037660 -0.073959 0
1.066020 -0.098421 0
1.107942 -0.122232 0
1.162125 -0.141229 0
1.235926 -0.143911 0
1.297981 -0.125801 0
1.340524 -0.098994 0
1.368486 -0.072542 0
1.388344 -0.047995 0
1.400499 -0.023433 0
1.398278 -0.001572 0
1.381061 0.008223 0
1.363279 0.000087 0
1.359562 -0.021567 0
1.374705 -0.047727 0
1.409367 -0.066314 0
1.456179 -0.058656 0
1.492481 -0.018015 0
1.503412 0.035959 0
1.483664 0.085763 0
1.438878 0.125874 0
1.377753 0.153517 0
1.308622 0.169951 0
1.240883 0.173202 0
1.183065 0.158421 0
1.109095 0.090345 0
0.756953 0.250731 0
0.273534 0.606053 0
0.339877 0.479385 0
0.616654 0.060703 0
0.831133 0.094863 0
0.696127 0.367271 0
0.568014 0.243533 0
0.596997 -0.146750 0
0.502298 -0.469614 0
0.409716 -0.619197 0
0.523980 -0.526512 0
0.680878 -0.312869 0
0.799376 -0.100430 0
0.833490 0.098253 0
0.827921 0.284539 0
0.904559 0.374221 0
0.982411 0.326397 0
1.009468 0.226220 0
0.987237 0.134961 0
0.870790 0.134940 0
0.742877 0.175164 0
0.736078 0.134993 0
0.760047 0.088827 0
0.730564 0.101510 0
0.680273 0.113935 0
0.627803 0.064339 0
0.551675 -0.016266 0
0.459124 -0.082531 0
0.417179 -0.116143 0
0.417931 -0.113644 0
0.428409 -0.093038 0
0.440626 -0.070425 0
0.454422 -0.051061 0
0.470926 -0.038048 0
0.492778 -0.035569 0
0.524803 -0.042937 0
0.568275 -0.056896 0
0.622056 -0.076161 0
0.683187 -0.100001 0
0.748791 -0.127030 0
0.811012 -0.150763 0
0.865610 -0.170353 0
0.908949 -0.181884 0
0.950005 -0.179905 0
0.991820 -0.170116 0
1.030092 -0.156312 0
1.056006 -0.153236 0
1.081285 -0.174039 0
1.124977 -0.208348 0
1.191117 -0.233521 0
1.265112 -0.231355 0
1.326188 -0.199644 0
1.363089 -0.145814 0
1.375939 -0.073437 0
1.371422 0.022717 0
1.355765 0.146003 0
1.332873 0.287147 0
1.292186 0.443356 0
1.238548 0.563391 0
1.230509 0.506208 0
1.173086 0.280898 0
1.046161 0.026260 0
0.942543 -0.083693 0
0.901536 0.027323 0
0.798096 0.202334 0
0.671300 0.294242 0
0.586171 0.286335 0
0.540036 0.215431 0
0.505924 0.151579 0
0.478621 0.120317 0
0.427552 0.072247 0
0.413756 0.038836 0
1.000000 -0.012204 0
1.002359 -0.038444 0
1.013905 -0.066568 0
1.030221 -0.096839 0
1.052942 -0.133947 0
1.097633 -0.173179 0
1.157337 -0.214296 0
1.282443 -0.222982 0
1.362023 -0.182847 0
1.400041 -0.134233 0
1.418020 -0.095513 0
1.433674 -0.064002 0
1.449831 -0.027202 0
1.443488 0.013893 0
1.401472 0.034495 0
1.356197 0.017359 0
1.339358 -0.025761 0
1.350566 -0.075910 0
1.387471 -0.114025 0
1.445087 -0.109038 0
1.502341 -0.051547 0
1.537243 0.034037 0
1.536922 0.119670 0
1.506681 0.186807 0
1.448389 0.228396 0
1.365699 0.243862 0
1.271073 0.236974 0
1.180229 0.197286 0
1.088784 0.276969 0
0.839712 0.579243 0
0.736061 0.680609 0
0.855253 0.412376 0
0.845762 0.157186 0
0.611732 0.214809 0
0.543266 0.244257 0
0.788668 -0.040142 0
1.016083 -0.203098 0
1.072906 -0.240461 0
0.889683 -0.458506 0
0.658981 -0.567632 0
0.598676 -0.392696 0
0.616527 -0.158215 0
0.659358 0.051325 0
0.730160 0.206714 0
0.835825 0.282401 0
0.930134 0.258568 0
0.971212 0.191720 0
0.954983 0.207965 0
0.905558 0.255038 0
0.915219 0.168301 0
0.902249 0.073277 0
0.787518 0.107910 0
0.750757 0.141701 0
0.805799 0.118799 0
0.803318 0.105849 0
0.675877 0.105027 0
0.528851 0.039021 0
0.476800 -0.061632 0
0.510965 -0.099135 0
0.552784 -0.086823 0
0.562052 -0.067629 0
0.547641 -0.055120 0
0.535834 -0.054262 0
0.540712 -0.068179 0
0.564240 -0.093770 0
0.608290 -0.124035 0
0.667488 -0.155272 0
0.736183 -0.186330 0
0.808880 -0.210726 0
0.882545 -0.222564 0
0.955102 -0.220965 0
1.012311 -0.212776 0
1.059019 -0.201559 0
1.104188 -0.184839 0
1.140996 -0.166804 0
1.154079 -0.163776 0
1.147015 -0.197128 0
1.157509 -0.256351 0
1.197231 -0.299941 0
1.250821 -0.295532 0
1.295734 -0.243369 0
1.319614 -0.163120 0
1.318707 -0.069378 0
1.303735 0.038362 0
1.286757 0.166153 0
1.271927 0.311624 0
1.259868 0.462224 0
1.268154 0.558595 0
1.292766 0.522960 0
1.255586 0.379908 0
1.145015 0.189570 0
0.963837 0.041052 0
0.792870 0.112290 0
0.664219 0.302976 0
0.601029 0.368993 0
0.597435 0.320851 0
0.613364 0.242806 0
0.585903 0.178148 0
0.537226 0.153280 0
0.495801 0.103508 0
0.483569 0.051820 0
1.000000 -0.012285 0
0.999320 -0.044165 0
1.006154 -0.079321 0
1.020396 -0.112997 0
1.027150 -0.165834 0
1.073057 -0.226627 0
1.126995 -0.326039 0
1.370402 -0.348597 0
1.440467 -0.243398 0
1.438866 -0.154990 0
1.421118 -0.106172 0
1.415858 -0.079803 0
1.440065 -0.033245 0
1.456044 0.046790 0
1.340606 0.095516 0
1.251263 0.062204 0
1.219350 -0.015933 0
1.200724 -0.095836 0
1.194934 -0.160832 0
1.234392 -0.173523 0
1.307473 -0.110167 0
1.379320 0.001382 0
1.418421 0.116330 0
1.433678 0.214411 0
1.427895 0.294503 0
1.387450 0.347271 0
1.311819 0.358676 0
1.206381 0.340714 0
1.050969 0.430866 0
0.954570 0.603458 0
1.041986 0.590515 0
1.127436 0.369688 0
1.071176 0.304228 0
0.806274 0.397362 0
0.712364 0.190340 0
0.739019 -0.229279 0
0.803698 -0.430984 0
0.973082 -0.343210 0
0.941603 -0.205268 0
0.681378 -0.235502 0
0.532579 -0.270411 0
0.508135 -0.161107 0
0.547410 -0.015377 0
0.629683 0.108075 0
0.742771 0.174251 0
0.856221 0.191013 0
0.909641 0.201374 0
0.928442 0.200619 0
1.005261 0.174707 0
1.055596 0.178477 0
0.899394 0.262697 0
0.738275 0.240322 0
0.715237 0.083232 0
0.724224 0.061377 0
0.662939 0.194263 0
0.548793 0.258203 0
0.471359 0.116549 0
0.436519 -0.098255 0
0.493534 -0.189627 0
0.602639 -0.144123 0
0.693072 -0.065280 0
0.707904 -0.024841 0
0.674016 -0.031118 0
0.627787 -0.063975 0
0.598451 -0.110515 0
0.603818 -0.160143 0
0.630760 -0.204054 0
0.665324 -0.241394 0
0.699083 -0.273392 0
0.739614 -0.296986 0
0.804148 -0.300120 0
0.894655 -0.285802 0
0.986329 -0.271784 0
1.068197 -0.252096 0
1.143529 -0.206205 0
1.182670 -0.159258 0
1.155060 -0.177472 0
1.119666 -0.258567 0
1.103497 -0.326837 0
1.096553 -0.329862 0
1.119116 -0.268442 0
1.149732 -0.168792 0
1.164569 -0.057562 0
1.167600 0.054662 0
1.166196 0.177806 0
1.154895 0.314030 0
1.165893 0.447122 0
1.206941 0.530487 0
1.250036 0.518771 0
1.246259 0.428643 0
1.181895 0.318002 0
1.012131 0.268445 0
0.755647 0.326934 0
0.630274 0.394168 0
0.643231 0.361019 0
0.707889 0.273993 0
0.723581 0.226956 0
0.658371 0.227710 0
0.582509 0.210411 0
0.564949 0.125896 0
0.558800 0.061795 0
1.000000 -0.011526 0
0.997618 -0.044602 0
0.998443 -0.087646 0
1.003337 -0.117836 0
0.999141 -0.186610 0
1.027711 -0.273025 0
1.055755 -0.511642 0
1.412976 -0.536454 0
1.344710 -0.251310 0
1.250221 -0.114882 0
1.191505 -0.072503 0
1.089554 -0.082947 0
1.055789 -0.067385 0
1.220596 0.113355 0
1.362847 0.239278 0
0.894887 0.138617 0
0.773691 0.024780 0
0.637919 -0.051490 0
0.476562 -0.147690 0
0.487557 -0.221574 0
0.613709 -0.196471 0
0.774168 -0.076907 0
0.986869 0.065315 0
1.136594 0.177337 0
1.207348 0.274627 0
1.231988 0.359941 0
1.237352 0.418048 0
1.203224 0.458140 0
1.122661 0.528783 0
1.113565 0.588230 0
1.188090 0.507747 0
1.217248 0.383189 0
1.080643 0.478352 0
0.952111 0.573626 0
0.923066 0.311516 0
0.796888 -0.131472 0
0.524432 -0.437157 0
0.380803 -0.378362 0
0.386211 -0.166798 0
0.400340 -0.158604 0
0.367185 -0.219449 0
0.378498 -0.173042 0
0.437999 -0.070220 0
0.534730 0.011356 0
0.656459 0.055866 0
0.767990 0.091702 0
0.859235 0.119503 0
0.938871 0.112349 0
0.974404 0.127887 0
0.922229 0.274172 0
0.847289 0.390602 0
0.867652 0.292069 0
0.833153 0.155755 0
0.726428 0.171100 0
0.663223 0.281283 0
0.700958 0.296609 0
0.758496 0.151297 0
0.753507 -0.083805 0
0.650058 -0.265253 0
0.606279 -0.286360 0
0.706685 -0.172893 0
0.748822 -0.036063 0
0.653828 0.025856 0
0.530028 0.007386 0
0.484998 -0.069801 0
0.510964 -0.156343 0
0.567091 -0.216778 0
0.623698 -0.254655 0
0.657732 -0.285016 0
0.661720 -0.327629 0
0.663290 -0.376008 0
0.716434 -0.394960 0
0.825304 -0.375103 0
0.956243 -0.342040 0
1.058760 -0.281280 0
1.137465 -0.175310 0
1.109029 -0.134128 0
0.902938 -0.204791 0
0.727738 -0.276831 0
0.634160 -0.311155 0
0.652583 -0.296553 0
0.762521 -0.208578 0
0.873534 -0.087251 0
0.943675 0.036730 0
0.976098 0.178851 0
0.998377 0.311921 0
1.031694 0.410173 0
1.085062 0.474446 0
1.142376 0.483635 0
1.159427 0.448042 0
1.115837 0.423691 0
1.003539 0.467293 0
0.880402 0.494141 0
0.850525 0.415385 0
0.900717 0.291371 0
0.920370 0.240493 0
0.810194 0.292316 0
0.700902 0.319213 0
0.665598 0.246694 0
0.673439 0.127210 0
0.675571 0.062017 0
1.000000 -0.009906 0
0.998685 -0.042613 0
1.002939 -0.085042 0
0.960258 -0.113697 0
0.997820 -0.190210 0
0.912508 -0.283242 0
1.005316 -0.711304 0
0.699034 -0.556910 0
0.002744 0.000000 0
0.003856 0.000000 0
0.492085 0.056280 0
0.442085 0.055915 0
0.264279 -0.164284 0
0.729511 -0.260265 0
0.399874 0.421227 0
0.294976 0.651363 0
0.046934 0.241037 0
-0.170417 0.201296 0
-0.371020 -0.010467 0
-0.346869 -0.310668 0
-0.166688 -0.396776 0
-0.006117 -0.371775 0
0.350352 -0.246092 0
0.657767 -0.006064 0
0.871020 0.199112 0
1.004883 0.317270 0
1.073521 0.387443 0
1.102078 0.455409 0
1.120377 0.520529 0
1.168281 0.538033 0
1.218891 0.486836 0
1.173387 0.477139 0
1.047469 0.569369 0
1.035432 0.554943 0
1.109131 0.345567 0
1.111222 0.169358 0
0.927998 -0.014895 0
0.596456 -0.204984 0
0.382609 -0.224801 0
0.314246 -0.216473 0
0.273097 -0.248565 0
0.278746 -0.231918 0
0.346107 -0.171605 0
0.451723 -0.110380 0
0.561809 -0.059006 0
0.657974 -0.011759 0
0.745528 0.030497 0
0.801648 0.085453 0
0.795595 0.191352 0
0.776593 0.305595 0
0.866220 0.317277 0
0.966279 0.254461 0
0.967115 0.224458 0
0.927909 0.231309 0
0.946478 0.219736 0
1.040436 0.162933 0
1.120820 0.064002 0
1.129881 0.010185 0
1.047429 -0.042397 0
0.961943 -0.200749 0
0.856154 -0.207822 0
0.668487 0.028018 0
0.507642 0.187678 0
0.435189 0.104855 0
0.472005 -0.091451 0
0.563297 -0.242236 0
0.670401 -0.316789 0
0.763031 -0.332036 0
0.829515 -0.311414 0
0.847553 -0.302545 0
0.790072 -0.354836 0
0.706525 -0.447818 0
0.705497 -0.511595 0
0.847818 -0.485554 0
1.004212 -0.387430 0
1.103871 -0.209530 0
1.111150 0.057051 0
0.942865 0.122721 0
0.631736 -0.058063 0
0.350270 -0.254711 0
0.260248 -0.396808 0
0.366065 -0.389749 0
0.560300 -0.238721 0
0.731652 -0.047907 0
0.841700 0.123098 0
0.909546 0.258429 0
0.957155 0.360431 0
1.009486 0.419798 0
1.058925 0.444399 0
1.081457 0.455174 0
1.066390 0.473883 0
1.038213 0.503874 0
1.054427 0.479941 0
1.084331 0.373845 0
1.073478 0.291167 0
0.957628 0.364508 0
0.829752 0.446416 0
0.793991 0.372298 0
0.813689 0.237867 0
0.832815 0.115916 0
0.839935 0.055614 0
1.000000 -0.010216 0
1.003931 -0.047546 0
0.981310 -0.049222 0
0.963388 -0.112720 0
0.926280 -0.138862 0
0.868502 -0.280523 0
0.802605 -0.378811 0
0.000000 -0.004327 0
-0.602439 0.131995 0
-0.524511 0.000000 0
0.000000 0.000000 0
0.040717 0.129298 0
0.071371 -0.354808 0
0.178562 -0.022238 0
-0.059785 0.673815 0
-0.106223 0.491559 0
-0.441266 0.490177 0
-0.640707 0.366467 0
-0.651836 0.028764 0
-0.527182 -0.425904 0
-0.473317 -0.537220 0
-0.356011 -0.593944 0
-0.127861 -0.598566 0
0.185610 -0.343328 0
0.506756 -0.072485 0
0.758088 0.157444 0
0.918736 0.320857 0
0.999163 0.411288 0
1.051966 0.462583 0
1.110352 0.489720 0
1.135692 0.502645 0
1.097176 0.554615 0
1.055588 0.616312 0
1.088473 0.511968 0
1.066556 0.235729 0
0.962577 0.049665 0
0.985873 0.077614 0
0.800737 0.167031 0
0.529310 0.115416 0
0.376480 -0.049088 0
0.296049 -0.183945 0
0.263774 -0.246048 0
0.289901 -0.243193 0
0.359298 -0.204342 0
0.443629 -0.150381 0
0.527361 -0.092014 0
0.601613 -0.024167 0
0.658405 0.062285 0
0.713518 0.152945 0
0.810771 0.203550 0
0.944148 0.200919 0
1.035267 0.191178 0
1.087273 0.194127 0
1.135422 0.191739 0
1.191663 0.168759 0
1.240198 0.122270 0
1.264520 0.061854 0
1.248039 -0.010412 0
1.255031 -0.097313 0
1.191184 -0.095083 0
0.945639 0.120564 0
0.717660 0.312451 0
0.659631 0.259155 0
0.732291 0.043024 0
0.824307 -0.197909 0
0.911959 -0.354740 0
0.999709 -0.416512 0
1.079611 -0.413769 0
1.160369 -0.369539 0
1.237766 -0.288187 0
1.270451 -0.234981 0
1.193010 -0.310386 0
1.008546 -0.516397 0
0.885599 -0.640757 0
0.923890 -0.537337 0
0.936058 -0.282251 0
0.903706 0.026875 0
0.877731 0.274618 0
0.707996 0.315759 0
0.523424 0.060329 0
0.387952 -0.312352 0
0.327620 -0.508635 0
0.416269 -0.452843 0
0.585015 -0.244675 0
0.762856 0.000951 0
0.895080 0.196460 0
0.964585 0.310227 0
1.007903 0.372670 0
1.044053 0.411657 0
1.065872 0.440570 0
1.072318 0.466928 0
1.083666 0.479249 0
1.113493 0.448015 0
1.119206 0.396326 0
1.053256 0.418066 0
0.947295 0.484212 0
0.934636 0.455946 0
0.966033 0.335268 0
0.994304 0.207863 0
1.015483 0.100956 0
1.025190 0.046203 0
1.000000 -0.013842 0
0.997617 -0.023930 0
0.964984 -0.044502 0
0.975729 -0.058669 0
0.871956 -0.095327 0
0.859070 -0.159570 0
0.544317 0.076199 0
0.371570 0.164696 0
0.000000 0.000000 0
0.000000 0.000000 0
0.000000 0.000000 0
0.000000 0.000000 0
0.160316 -0.271110 0
-0.343969 -0.129107 0
-0.060106 0.706015 0
-0.207619 1.032846 0
-0.526691 0.775523 0
-0.476407 0.411869 0
-0.314561 -0.123989 0
-0.188313 -0.489185 0
-0.245312 -0.567944 0
-0.142314 -0.717228 0
-0.155930 -0.787710 0
-0.007487 -0.640678 0
0.249105 -0.373363 0
0.503454 -0.094706 0
0.727173 0.146372 0
0.912512 0.322182 0
1.018854 0.409344 0
1.084875 0.454311 0
1.128986 0.500016 0
1.149003 0.557248 0
1.184250 0.578076 0
1.223776 0.543979 0
1.130403 0.471467 0
0.921342 0.250045 0
0.676224 0.146949 0
0.484699 0.251583 0
0.411368 0.199460 0
0.384375 0.016792 0
0.363477 -0.135856 0
0.324137 -0.225766 0
0.313019 -0.267124 0
0.341194 -0.264104 0
0.399172 -0.227065 0
0.472142 -0.169740 0
0.553057 -0.100543 0
0.642459 -0.026448 0
0.750481 0.038989 0
0.878491 0.074969 0
0.997378 0.092784 0
1.086926 0.111339 0
1.164576 0.124306 0
1.235022 0.126921 0
1.297457 0.114963 0
1.342185 0.090078 0
1.362839 0.056164 0
1.355743 0.019677 0
1.308361 0.014460 0
1.187123 0.108644 0
1.055511 0.265704 0
1.052216 0.314026 0