# vtk DataFile Version 2.0
generated by CFD-lab course output (written by Tobias Neckel) 
ASCII

DATASET STRUCTURED_GRID
DIMENSIONS  101 21 1 
POINTS 2121 float

0.000000 0.000000 0
0.100000 0.000000 0
0.200000 0.000000 0
0.300000 0.000000 0
0.400000 0.000000 0
0.500000 0.000000 0
0.600000 0.000000 0
0.700000 0.000000 0
0.800000 0.000000 0
0.900000 0.000000 0
1.000000 0.000000 0
1.100000 0.000000 0
1.200000 0.000000 0
1.300000 0.000000 0
1.400000 0.000000 0
1.500000 0.000000 0
1.600000 0.000000 0
1.700000 0.000000 0
1.800000 0.000000 0
1.900000 0.000000 0
2.000000 0.000000 0
2.100000 0.000000 0
2.200000 0.000000 0
2.300000 0.000000 0
2.400000 0.000000 0
2.500000 0.000000 0
2.600000 0.000000 0
2.700000 0.000000 0
2.800000 0.000000 0
2.900000 0.000000 0
3.000000 0.000000 0
3.100000 0.000000 0
3.200000 0.000000 0
3.300000 0.000000 0
3.400000 0.000000 0
3.500000 0.000000 0
3.600000 0.000000 0
3.700000 0.000000 0
3.800000 0.000000 0
3.900000 0.000000 0
4.000000 0.000000 0
4.100000 0.000000 0
4.200000 0.000000 0
4.300000 0.000000 0
4.400000 0.000000 0
4.500000 0.000000 0
4.600000 0.000000 0
4.700000 0.000000 0
4.800000 0.000000 0
4.900000 0.000000 0
5.000000 0.000000 0
5.100000 0.000000 0
5.200000 0.000000 0
5.300000 0.000000 0
5.400000 0.000000 0
5.500000 0.000000 0
5.600000 0.000000 0
5.700000 0.000000 0
5.800000 0.000000 0
5.900000 0.000000 0
6.000000 0.000000 0
6.100000 0.000000 0
6.200000 0.000000 0
6.300000 0.000000 0
6.400000 0.000000 0
6.500000 0.000000 0
6.600000 0.000000 0
6.700000 0.000000 0
6.800000 0.000000 0
6.900000 0.000000 0
7.000000 0.000000 0
7.100000 0.000000 0
7.200000 0.000000 0
7.300000 0.000000 0
7.400000 0.000000 0
7.500000 0.000000 0
7.600000 0.000000 0
7.700000 0.000000 0
7.800000 0.000000 0
7.900000 0.000000 0
8.000000 0.000000 0
8.100000 0.000000 0
8.200000 0.000000 0
8.300000 0.000000 0
8.400000 0.000000 0
8.500000 0.000000 0
8.600000 0.000000 0
8.700000 0.000000 0
8.800000 0.000000 0
8.900000 0.000000 0
9.000000 0.000000 0
9.100000 0.000000 0
9.200000 0.000000 0
9.300000 0.000000 0
9.400000 0.000000 0
9.500000 0.000000 0
9.600000 0.000000 0
9.700000 0.000000 0
9.800000 0.000000 0
9.900000 0.000000 0
10.000000 0.000000 0
0.000000 0.100000 0
0.100000 0.100000 0
0.200000 0.100000 0
0.300000 0.100000 0
0.400000 0.100000 0
0.500000 0.100000 0
0.600000 0.100000 0
0.700000 0.100000 0
0.800000 0.100000 0
0.900000 0.100000 0
1.000000 0.100000 0
1.100000 0.100000 0
1.200000 0.100000 0
1.300000 0.100000 0
1.400000 0.100000 0
1.500000 0.100000 0
1.600000 0.100000 0
1.700000 0.100000 0
1.800000 0.100000 0
1.900000 0.100000 0
2.000000 0.100000 0
2.100000 0.100000 0
2.200000 0.100000 0
2.300000 0.100000 0
2.400000 0.100000 0
2.500000 0.100000 0
2.600000 0.100000 0
2.700000 0.100000 0
2.800000 0.100000 0
2.900000 0.100000 0
3.000000 0.100000 0
3.100000 0.100000 0
3.200000 0.100000 0
3.300000 0.100000 0
3.400000 0.100000 0
3.500000 0.100000 0
3.600000 0.100000 0
3.700000 0.100000 0
3.800000 0.100000 0
3.900000 0.100000 0
4.000000 0.100000 0
4.100000 0.100000 0
4.200000 0.100000 0
4.300000 0.100000 0
4.400000 0.100000 0
4.500000 0.100000 0
4.600000 0.100000 0
4.700000 0.100000 0
4.800000 0.100000 0
4.900000 0.100000 0
5.000000 0.100000 0
5.100000 0.100000 0
5.200000 0.100000 0
5.300000 0.100000 0
5.400000 0.100000 0
5.500000 0.100000 0
5.600000 0.100000 0
5.700000 0.100000 0
5.800000 0.100000 0
5.900000 0.100000 0
6.000000 0.100000 0
6.100000 0.100000 0
6.200000 0.100000 0
6.300000 0.100000 0
6.400000 0.100000 0
6.500000 0.100000 0
6.600000 0.100000 0
6.700000 0.100000 0
6.800000 0.100000 0
6.900000 0.100000 0
7.000000 0.100000 0
7.100000 0.100000 0
7.200000 0.100000 0
7.300000 0.100000 0
7.400000 0.100000 0
7.500000 0.100000 0
7.600000 0.100000 0
7.700000 0.100000 0
7.800000 0.100000 0
7.900000 0.100000 0
8.000000 0.100000 0
8.100000 0.100000 0
8.200000 0.100000 0
8.300000 0.100000 0
8.400000 0.100000 0
8.500000 0.100000 0
8.600000 0.100000 0
8.700000 0.100000 0
8.800000 0.100000 0
8.900000 0.100000 0
9.000000 0.100000 0
9.100000 0.100000 0
9.200000 0.100000 0
9.300000 0.100000 0
9.400000 0.100000 0
9.500000 0.100000 0
9.600000 0.100000 0
9.700000 0.100000 0
9.800000 0.100000 0
9.900000 0.100000 0
10.000000 0.100000 0
0.000000 0.200000 0
0.100000 0.200000 0
0.200000 0.200000 0
0.300000 0.200000 0
0.400000 0.200000 0
0.500000 0.200000 0
0.600000 0.200000 0
0.700000 0.200000 0
0.800000 0.200000 0
0.900000 0.200000 0
1.000000 0.200000 0
1.100000 0.200000 0
1.200000 0.200000 0
1.300000 0.200000 0
1.400000 0.200000 0
1.500000 0.200000 0
1.600000 0.200000 0
1.700000 0.200000 0
1.800000 0.200000 0
1.900000 0.200000 0
2.000000 0.200000 0
2.100000 0.200000 0
2.200000 0.200000 0
2.300000 0.200000 0
2.400000 0.200000 0
2.500000 0.200000 0
2.600000 0.200000 0
2.700000 0.200000 0
2.800000 0.200000 0
2.900000 0.200000 0
3.000000 0.200000 0
3.100000 0.200000 0
3.200000 0.200000 0
3.300000 0.200000 0
3.400000 0.200000 0
3.500000 0.200000 0
3.600000 0.200000 0
3.700000 0.200000 0
3.800000 0.200000 0
3.900000 0.200000 0
4.000000 0.200000 0
4.100000 0.200000 0
4.200000 0.200000 0
4.300000 0.200000 0
4.400000 0.200000 0
4.500000 0.200000 0
4.600000 0.200000 0
4.700000 0.200000 0
4.800000 0.200000 0
4.900000 0.200000 0
5.000000 0.200000 0
5.100000 0.200000 0
5.200000 0.200000 0
5.300000 0.200000 0
5.400000 0.200000 0
5.500000 0.200000 0
5.600000 0.200000 0
5.700000 0.200000 0
5.800000 0.200000 0
5.900000 0.200000 0
6.000000 0.200000 0
6.100000 0.200000 0
6.200000 0.200000 0
6.300000 0.200000 0
6.400000 0.200000 0
6.500000 0.200000 0
6.600000 0.200000 0
6.700000 0.200000 0
6.800000 0.200000 0
6.900000 0.200000 0
7.000000 0.200000 0
7.100000 0.200000 0
7.200000 0.200000 0
7.300000 0.200000 0
7.400000 0.200000 0
7.500000 0.200000 0
7.600000 0.200000 0
7.700000 0.200000 0
7.800000 0.200000 0
7.900000 0.200000 0
8.000000 0.200000 0
8.100000 0.200000 0
8.200000 0.200000 0
8.300000 0.200000 0
8.400000 0.200000 0
8.500000 0.200000 0
8.600000 0.200000 0
8.700000 0.200000 0
8.800000 0.200000 0
8.900000 0.200000 0
9.000000 0.200000 0
9.100000 0.200000 0
9.200000 0.200000 0
9.300000 0.200000 0
9.400000 0.200000 0
9.500000 0.200000 0
9.600000 0.200000 0
9.700000 0.200000 0
9.800000 0.200000 0
9.900000 0.200000 0
10.000000 0.200000 0
0.000000 0.300000 0
0.100000 0.300000 0
0.200000 0.300000 0
0.300000 0.300000 0
0.400000 0.300000 0
0.500000 0.300000 0
0.600000 0.300000 0
0.700000 0.300000 0
0.800000 0.300000 0
0.900000 0.300000 0
1.000000 0.300000 0
1.100000 0.300000 0
1.200000 0.300000 0
1.300000 0.300000 0
1.400000 0.300000 0
1.500000 0.300000 0
1.600000 0.300000 0
1.700000 0.300000 0
1.800000 0.300000 0
1.900000 0.300000 0
2.000000 0.300000 0
2.100000 0.300000 0
2.200000 0.300000 0
2.300000 0.300000 0
2.400000 0.300000 0
2.500000 0.300000 0
2.600000 0.300000 0
2.700000 0.300000 0
2.800000 0.300000 0
2.900000 0.300000 0
3.000000 0.300000 0
3.100000 0.300000 0
3.200000 0.300000 0
3.300000 0.300000 0
3.400000 0.300000 0
3.500000 0.300000 0
3.600000 0.300000 0
3.700000 0.300000 0
3.800000 0.300000 0
3.900000 0.300000 0
4.000000 0.300000 0
4.100000 0.300000 0
4.200000 0.300000 0
4.300000 0.300000 0
4.400000 0.300000 0
4.500000 0.300000 0
4.600000 0.300000 0
4.700000 0.300000 0
4.800000 0.300000 0
4.900000 0.300000 0
5.000000 0.300000 0
5.100000 0.300000 0
5.200000 0.300000 0
5.300000 0.300000 0
5.400000 0.300000 0
5.500000 0.300000 0
5.600000 0.300000 0
5.700000 0.300000 0
5.800000 0.300000 0
5.900000 0.300000 0
6.000000 0.300000 0
6.100000 0.300000 0
6.200000 0.300000 0
6.300000 0.300000 0
6.400000 0.300000 0
6.500000 0.300000 0
6.600000 0.300000 0
6.700000 0.300000 0
6.800000 0.300000 0
6.900000 0.300000 0
7.000000 0.300000 0
7.100000 0.300000 0
7.200000 0.300000 0
7.300000 0.300000 0
7.400000 0.300000 0
7.500000 0.300000 0
7.600000 0.300000 0
7.700000 0.300000 0
7.800000 0.300000 0
7.900000 0.300000 0
8.000000 0.300000 0
8.100000 0.300000 0
8.200000 0.300000 0
8.300000 0.300000 0
8.400000 0.300000 0
8.500000 0.300000 0
8.600000 0.300000 0
8.700000 0.300000 0
8.800000 0.300000 0
8.900000 0.300000 0
9.000000 0.300000 0
9.100000 0.300000 0
9.200000 0.300000 0
9.300000 0.300000 0
9.400000 0.300000 0
9.500000 0.300000 0
9.600000 0.300000 0
9.700000 0.300000 0
9.800000 0.300000 0
9.900000 0.300000 0
10.000000 0.300000 0
0.000000 0.400000 0
0.100000 0.400000 0
0.200000 0.400000 0
0.300000 0.400000 0
0.400000 0.400000 0
0.500000 0.400000 0
0.600000 0.400000 0
0.700000 0.400000 0
0.800000 0.400000 0
0.900000 0.400000 0
1.000000 0.400000 0
1.100000 0.400000 0
1.200000 0.400000 0
1.300000 0.400000 0
1.400000 0.400000 0
1.500000 0.400000 0
1.600000 0.400000 0
1.700000 0.400000 0
1.800000 0.400000 0
1.900000 0.400000 0
2.000000 0.400000 0
2.100000 0.400000 0
2.200000 0.400000 0
2.300000 0.400000 0
2.400000 0.400000 0
2.500000 0.400000 0
2.600000 0.400000 0
2.700000 0.400000 0
2.800000 0.400000 0
2.900000 0.400000 0
3.000000 0.400000 0
3.100000 0.400000 0
3.200000 0.400000 0
3.300000 0.400000 0
3.400000 0.400000 0
3.500000 0.400000 0
3.600000 0.400000 0
3.700000 0.400000 0
3.800000 0.400000 0
3.900000 0.400000 0
4.000000 0.400000 0
4.100000 0.400000 0
4.200000 0.400000 0
4.300000 0.400000 0
4.400000 0.400000 0
4.500000 0.400000 0
4.600000 0.400000 0
4.700000 0.400000 0
4.800000 0.400000 0
4.900000 0.400000 0
5.000000 0.400000 0
5.100000 0.400000 0
5.200000 0.400000 0
5.300000 0.400000 0
5.400000 0.400000 0
5.500000 0.400000 0
5.600000 0.400000 0
5.700000 0.400000 0
5.800000 0.400000 0
5.900000 0.400000 0
6.000000 0.400000 0
6.100000 0.400000 0
6.200000 0.400000 0
6.300000 0.400000 0
6.400000 0.400000 0
6.500000 0.400000 0
6.600000 0.400000 0
6.700000 0.400000 0
6.800000 0.400000 0
6.900000 0.400000 0
7.000000 0.400000 0
7.100000 0.400000 0
7.200000 0.400000 0
7.300000 0.400000 0
7.400000 0.400000 0
7.500000 0.400000 0
7.600000 0.400000 0
7.700000 0.400000 0
7.800000 0.400000 0
7.900000 0.400000 0
8.000000 0.400000 0
8.100000 0.400000 0
8.200000 0.400000 0
8.300000 0.400000 0
8.400000 0.400000 0
8.500000 0.400000 0
8.600000 0.400000 0
[...]
POINT_DATA 2121 

VECTORS velocity float
0.500000 0.000000 0
-0.000034 0.000000 0
-0.000091 0.000000 0
-0.000152 0.000000 0
-0.000195 0.000000 0
-0.000203 0.000000 0
-0.000153 0.000000 0
0.000002 0.000000 0
0.000325 0.000000 0
0.000810 0.000000 0
0.001385 0.000000 0
0.001861 0.000000 0
0.002181 0.000000 0
0.002470 0.000000 0
0.002661 0.000000 0
0.002717 0.000000 0
0.002647 0.000000 0
0.002421 0.000000 0
0.001991 0.000000 0
0.001313 0.000000 0
0.000386 0.000000 0
-0.000704 0.000000 0
-0.001742 0.000000 0
-0.002500 0.000000 0
-0.002826 0.000000 0
-0.002670 0.000000 0
-0.002114 0.000000 0
-0.001303 0.000000 0
-0.000388 0.000000 0
0.000475 0.000000 0
0.001036 0.000000 0
0.001242 0.000000 0
0.002122 0.000000 0
0.003725 0.000000 0
0.000615 0.000000 0
-0.004034 0.000000 0
-0.008946 0.000000 0
-0.001020 0.000000 0
0.006864 0.000000 0
-0.012351 0.000000 0
0.005265 0.000000 0
0.040765 0.000000 0
0.032023 0.000000 0
0.017814 0.000000 0
0.006315 0.000000 0
-0.001842 0.000000 0
-0.007938 0.000000 0
-0.012434 0.000000 0
-0.014598 0.000000 0
-0.014162 0.000000 0
-0.011621 0.000000 0
-0.008603 0.000000 0
-0.006798 0.000000 0
-0.008782 0.000000 0
-0.010125 0.000000 0
-0.010880 0.000000 0
-0.011368 0.000000 0
-0.011700 0.000000 0
-0.011803 0.000000 0
-0.011602 0.000000 0
-0.011202 0.000000 0
-0.010697 0.000000 0
-0.010026 0.000000 0
-0.008519 0.000000 0
-0.004439 0.000000 0
0.003563 0.000000 0
0.013339 0.000000 0
0.023656 0.000000 0
0.032346 0.000000 0
0.031751 0.000000 0
0.009575 0.000000 0
0.014784 0.000000 0
0.014397 0.000000 0
0.006341 0.000000 0
-0.001681 0.000000 0
-0.002615 0.000000 0
-0.000372 0.000000 0
0.000202 0.000000 0
-0.000133 0.000000 0
0.001601 0.000000 0
0.005947 0.000000 0
0.010068 0.000000 0
0.011035 0.000000 0
0.008835 0.000000 0
0.006103 0.000000 0
0.004111 0.000000 0
0.002866 0.000000 0
0.002067 0.000000 0
0.001472 0.000000 0
0.000931 0.000000 0
0.000376 0.000000 0
-0.000249 0.000000 0
-0.000987 0.000000 0
-0.001806 0.000000 0
-0.002652 0.000000 0
-0.003452 0.000000 0
-0.004201 0.000000 0
-0.004507 0.000000 0
-0.005474 0.000000 0
-0.005854 0.000000 0
-0.005892 0.000000 0
1.000000 -0.004953 0
1.010481 -0.015422 0
1.032218 -0.026770 0
1.065879 -0.038424 0
1.111664 -0.049528 0
1.168810 -0.058673 0
1.234650 -0.063954 0
1.304760 -0.062826 0
1.369462 -0.053994 0
1.419684 -0.039543 0
1.452261 -0.022662 0
1.466028 -0.006107 0
1.464035 0.008554 0
1.448999 0.021712 0
1.421265 0.033737 0
1.382103 0.044297 0
1.332913 0.052755 0
1.276041 0.058019 0
1.215270 0.058798 0
1.155788 0.053984 0
1.103917 0.043119 0
1.066477 0.027126 0
1.048938 0.009129 0
1.051506 -0.006228 0
1.067784 -0.015593 0
1.090019 -0.018197 0
1.111145 -0.014896 0
1.125703 -0.007434 0
1.130574 0.002027 0
1.125061 0.010980 0
1.110438 0.016847 0
1.088699 0.021124 0
1.060913 0.028872 0
1.031668 0.028378 0
1.014767 -0.002438 0
1.033184 -0.057970 0
1.107711 -0.107214 0
1.278575 -0.062230 0
1.389218 0.029846 0
1.288260 0.004785 0
0.996478 0.095971 0
0.684886 0.302323 0
0.431571 0.318612 0
0.272994 0.205231 0
0.201239 0.074982 0
0.200524 -0.032420 0
0.257653 -0.108093 0
0.359328 -0.152027 0
0.491795 -0.162074 0
0.632806 -0.143289 0
0.764006 -0.108945 0
0.871738 -0.074561 0
0.955016 -0.055920 0
1.019552 -0.058253 0
1.078506 -0.067001 0
1.143669 -0.072032 0
1.212179 -0.074871 0
1.282852 -0.076611 0
1.355227 -0.076932 0
1.426774 -0.074947 0
1.495113 -0.070819 0
1.557794 -0.065184 0
1.612341 -0.057561 0
1.655548 -0.043730 0
1.680240 -0.013669 0
1.672407 0.038987 0
1.616066 0.105204 0
1.502195 0.178038 0
1.338978 0.231598 0
1.152209 0.182134 0
0.948999 0.078606 0
0.771373 0.074111 0
0.652008 0.104456 0
0.598261 0.060578 0
0.618393 -0.007857 0
0.689756 -0.032183 0
0.735245 -0.021845 0
0.750118 -0.020801 0
0.748099 -0.027091 0
0.727481 -0.009239 0
0.673441 0.043349 0
0.588805 0.100563 0
0.494715 0.123647 0
0.413564 0.106924 0
0.353748 0.076454 0
0.311652 0.052969 0
0.280130 0.039402 0
0.253895 0.031904 0
0.230910 0.027121 0
0.211033 0.022778 0
0.194203 0.018465 0
0.180714 0.013720 0
0.171684 0.007579 0
0.168452 0.000524 0
0.171999 -0.007041 0
0.182945 -0.014368 0
0.196500 -0.021471 0
0.223636 -0.019082 0
0.226584 -0.032445 0
0.259846 -0.031765 0
0.270272 -0.011740 0
1.000000 -0.010501 0
1.010701 -0.032247 0
1.032909 -0.055416 0
1.067748 -0.079464 0
1.116147 -0.102949 0
1.178489 -0.123004 0
1.252376 -0.135966 0
1.337216 -0.134828 0
1.414780 -0.114940 0
1.470281 -0.082814 0
1.502564 -0.046359 0
1.514777 -0.011788 0
1.511160 0.017015 0
1.494172 0.042756 0
1.464450 0.066883 0
1.423680 0.088340 0
1.371938 0.106050 0
1.310822 0.117632 0
1.243861 0.120242 0
1.176377 0.111342 0
1.115985 0.089301 0
1.072089 0.054969 0
1.055001 0.014962 0
1.066764 -0.018854 0
1.094470 -0.038521 0
1.127532 -0.043368 0
1.157653 -0.035690 0
1.178380 -0.019435 0
1.186498 0.000636 0
1.181961 0.020131 0
1.165822 0.036357 0
1.140370 0.049520 0
1.111755 0.057027 0
1.083506 0.046143 0
1.052413 -0.001519 0
1.059963 -0.092948 0
1.097487 -0.245394 0
0.996337 -0.281509 0
0.894246 -0.009687 0
0.728271 0.392737 0
0.439633 0.603372 0
0.322085 0.564904 0
0.361510 0.411890 0
0.424596 0.230330 0
0.425180 0.072468 0
0.376831 -0.056416 0
0.338911 -0.158807 0
0.346673 -0.234145 0
0.403045 -0.273481 0
0.495252 -0.272215 0
0.607164 -0.238936 0
0.725340 -0.191014 0
0.837607 -0.147819 0
0.930195 -0.123494 0
1.000783 -0.124122 0
1.057995 -0.133679 0
1.114971 -0.139189 0
1.173579 -0.143054 0
1.235887 -0.143928 0
1.296936 -0.139893 0
1.354508 -0.131027 0
1.404827 -0.117235 0
1.442757 -0.097761 0
1.462964 -0.067906 0
1.462020 -0.016866 0
1.440083 0.064167 0
1.397167 0.170204 0
1.326717 0.277081 0
1.244571 0.349979 0
1.149286 0.389973 0
0.982325 0.380830 0
0.812768 0.296985 0
0.748176 0.173106 0
0.767869 0.033609 0
0.815629 -0.091499 0
0.734880 -0.116856 0
0.647854 -0.060366 0
0.600432 -0.012856 0
0.560338 0.022636 0
0.501596 0.074656 0
0.430403 0.138675 0
0.372238 0.178726 0
0.342897 0.175242 0
0.334798 0.140968 0
0.333546 0.101913 0
0.330471 0.073621 0
0.322349 0.057760 0
0.310310 0.049224 0
0.296648 0.042867 0
0.281914 0.036712 0
0.265167 0.030324 0
0.248255 0.022525 0
0.234390 0.012269 0
0.227892 -0.000309 0
0.230549 -0.014486 0
0.243986 -0.024494 0
0.263422 -0.040685 0
0.291670 -0.030076 0
0.319532 -0.036203 0
0.308732 -0.043681 0
0.316104 -0.020861 0
1.000000 -0.015668 0
1.009462 -0.048350 0
1.030365 -0.083825 0
1.064836 -0.121670 0
1.115092 -0.160275 0
1.183689 -0.194909 0
1.267733 -0.222689 0
1.385557 -0.225237 0
1.481976 -0.187065 0
1.542404 -0.127332 0
1.571349 -0.067163 0
1.578128 -0.014709 0
1.569779 0.029154 0
1.550722 0.068417 0
1.520716 0.104224 0
1.475212 0.136803 0
1.415201 0.165610 0
1.342497 0.186092 0
1.261755 0.193238 0
1.180129 0.181856 0
1.102222 0.147403 0
1.035720 0.088107 0
1.016100 0.014451 0
1.048844 -0.045700 0
1.096801 -0.076364 0
1.146806 -0.081383 0
1.191034 -0.065746 0
1.221679 -0.036282 0
1.234844 -0.001556 0
1.230521 0.031654 0
1.209263 0.058436 0
1.176958 0.075189 0
1.143127 0.085735 0
1.108033 0.087719 0
1.077222 0.021103 0
1.056418 -0.103045 0
0.885194 -0.043589 0
0.585717 0.141010 0
0.375701 0.297911 0
0.375901 0.459397 0
0.544413 0.502156 0
0.701786 0.380445 0
0.731896 0.216101 0
0.615462 0.141560 0
0.460661 0.122746 0
0.343958 0.053848 0
0.284736 -0.077936 0
0.277306 -0.216163 0
0.310629 -0.310655 0
0.378228 -0.347409 0
0.469750 -0.339035 0
0.571591 -0.305006 0
0.676613 -0.260777 0
0.777987 -0.221432 0
0.864653 -0.194804 0
0.931602 -0.186222 0
0.990499 -0.190458 0
1.046041 -0.197530 0
1.096793 -0.200291 0
1.145048 -0.193571 0
1.190452 -0.178714 0
1.228636 -0.153436 0
1.253547 -0.115701 0
1.258663 -0.062996 0
1.240976 0.009210 0
1.204959 0.103838 0
1.168033 0.218567 0
1.120193 0.330632 0
1.082641 0.409026 0
1.055211 0.444377 0
1.048126 0.415122 0
1.053464 0.308258 0
1.066182 0.149353 0
1.076880 -0.006876 0
1.004148 0.025131 0
0.824412 0.135590 0
0.678000 0.112603 0
0.580118 0.066715 0
0.501030 0.071745 0
0.425400 0.120695 0
0.368723 0.172707 0
0.346488 0.188070 0
0.357087 0.161087 0
0.386291 0.116275 0
0.418929 0.080782 0
0.442765 0.064168 0
0.450889 0.059565 0
0.440519 0.057607 0
0.414727 0.055519 0
0.379602 0.054262 0
0.342762 0.052128 0
0.310357 0.044500 0
0.287796 0.027944 0
0.279506 0.004368 0
0.283705 -0.023133 0
0.300290 -0.047237 0
0.330417 -0.069151 0
0.351826 -0.075189 0
0.415173 -0.049504 0
0.445361 -0.028334 0
0.456381 -0.026210 0
1.000000 -0.019978 0
1.006559 -0.062631 0
1.024246 -0.110798 0
1.056104 -0.164198 0
1.106613 -0.221808 0
1.179919 -0.275651 0
1.274506 -0.337841 0
1.461697 -0.349078 0
1.580640 -0.271793 0
1.636941 -0.172193 0
1.656061 -0.082089 0
1.651842 -0.010224 0
1.636685 0.044416 0
1.620705 0.091814 0
1.597646 0.142387 0
1.553237 0.193851 0
1.481079 0.238762 0
1.387972 0.271073 0
1.280211 0.282605 0
1.155944 0.270872 0
1.017603 0.233706 0
0.989287 0.141088 0
0.927312 0.001836 0
0.981931 -0.099559 0
1.057605 -0.136485 0
1.112573 -0.137604 0
1.169279 -0.110566 0
1.217452 -0.063247 0
1.249230 -0.008208 0
1.265994 0.045710 0
1.259795 0.089919 0
1.229492 0.115655 0
1.182508 0.125951 0
1.133134 0.112047 0
1.097033 0.050094 0
0.955160 0.099078 0
0.666424 0.225305 0
0.574849 0.227983 0
0.639797 0.200128 0
0.763879 0.224025 0
0.857503 0.277485 0
0.824892 0.377420 0
0.614675 0.498214 0
0.343336 0.501564 0
0.178526 0.343971 0
0.147308 0.119508 0
0.176999 -0.092156 0
0.204418 -0.260040 0
0.227317 -0.374405 0
0.274975 -0.431338 0
0.364533 -0.432300 0
0.469289 -0.397879 0
0.561497 -0.354217 0
0.641267 -0.311536 0
0.710121 -0.277739 0
0.773094 -0.259528 0
0.831007 -0.253631 0
0.890074 -0.249351 0
0.946108 -0.242938 0
0.995712 -0.233554 0
1.033135 -0.214619 0
1.058187 -0.180334 0
1.071205 -0.127791 0
1.070229 -0.055338 0
1.054873 0.036835 0
1.027869 0.137106 0
1.001877 0.254967 0
0.987705 0.362471 0
0.995693 0.414959 0
1.022802 0.424485 0
1.069622 0.382574 0
1.121210 0.278927 0
1.149632 0.149689 0
1.107529 0.095643 0
0.919970 0.160968 0
0.809229 0.209290 0
0.720111 0.183927 0
0.618566 0.164114 0
0.520022 0.177353 0
0.441891 0.206963 0
0.404962 0.217587 0
0.408395 0.190363 0
0.432435 0.135440 0
0.455609 0.079126 0
0.466691 0.045440 0
0.465094 0.041663 0
0.455527 0.060008 0
0.434521 0.085387 0
0.403898 0.103787 0
0.372404 0.108679 0
0.349978 0.099571 0
0.339991 0.077494 0
0.344154 0.043123 0
0.360283 0.003785 0
0.383079 -0.035268 0
0.404054 -0.071203 0
0.425664 -0.092217 0
0.439051 -0.114829 0
0.448985 -0.129735 0
0.501393 -0.084886 0
0.511952 -0.042570 0
1.000000 -0.022242 0
1.002227 -0.072614 0
1.015017 -0.133377 0
1.037435 -0.204043 0
1.083414 -0.284096 0
1.150372 -0.362808 0
1.260059 -0.504473 0
1.578081 -0.531377 0
1.671555 -0.362315 0
1.677797 -0.202759 0
1.671321 -0.082070 0
1.655698 0.004662 0
1.637899 0.060286 0
1.644832 0.107452 0
1.656944 0.171687 0
1.646548 0.253365 0
1.590678 0.330871 0
1.483521 0.386957 0
1.346990 0.425262 0
1.219902 0.444460 0
1.102346 0.314056 0
0.829635 0.178395 0
0.562869 0.021804 0
0.688003 -0.175997 0
0.793128 -0.207009 0
0.792933 -0.193059 0
0.834418 -0.170626 0
0.937478 -0.116235 0
1.054699 -0.050100 0
1.138690 0.021087 0
1.178640 0.094936 0
1.185489 0.152475 0
1.173437 0.182091 0
1.143164 0.173193 0
1.082685 0.199077 0
0.923573 0.327563 0
0.785494 0.336721 0
0.729480 0.167636 0
0.676324 0.108880 0
0.611420 0.241690 0
0.494825 0.441142 0
0.321966 0.623272 0
0.183663 0.697656 0
0.176413 0.577708 0
0.254986 0.318773 0
0.362585 0.055374 0
0.445698 -0.135048 0
0.445155 -0.266482 0
0.372880 -0.381212 0
0.304929 -0.484627 0
0.320437 -0.533351 0
0.418633 -0.501972 0
0.531011 -0.432757 0
0.613304 -0.370059 0
0.659455 -0.326634 0
0.688145 -0.307110 0
0.717353 -0.307440 0
0.761777 -0.312633 0
0.825505 -0.305932 0
0.889565 -0.280602 0
0.931020 -0.241192 0
0.946424 -0.191509 0
0.943195 -0.127746 0
0.932471 -0.046667 0
0.922254 0.051567 0
0.918481 0.156830 0
0.918530 0.258728 0
0.945971 0.336813 0
0.985342 0.373927 0
1.034255 0.370446 0
1.101654 0.316712 0
1.164847 0.228246 0
1.160270 0.163032 0
1.028809 0.222784 0
0.860137 0.323430 0
0.737190 0.335448 0
0.630527 0.303265 0
0.545546 0.266803 0
0.491073 0.248420 0
0.473036 0.235756 0
0.490454 0.206203 0
0.527125 0.160597 0
0.559498 0.113873 0
0.568823 0.082021 0
0.551316 0.071298 0
0.518420 0.075334 0
0.486593 0.090139 0
0.465970 0.109237 0
0.462266 0.117639 0
0.477401 0.108185 0
0.508918 0.084543 0
0.547720 0.050326 0
0.592217 0.007655 0
0.639168 -0.034555 0
0.684014 -0.066901 0
0.717545 -0.089819 0
0.740985 -0.104145 0
0.761699 -0.098506 0
0.760372 -0.111844 0
0.748176 -0.091298 0
0.746904 -0.047244 0
1.000000 -0.022219 0
0.998529 -0.077665 0
1.005508 -0.146014 0
1.008294 -0.232602 0
1.043451 -0.334752 0
1.074528 -0.452303 0
1.227750 -0.765557 0
1.600018 -0.760579 0
1.478584 -0.371514 0
1.342921 -0.171965 0
1.280118 -0.059996 0
1.300558 0.023193 0
1.250683 0.055277 0
1.347587 0.072764 0
1.429843 0.140667 0
1.509123 0.260112 0
1.557224 0.401784 0
1.535381 0.514758 0
1.439622 0.546221 0
1.275789 0.515511 0
1.129824 0.623970 0
0.848994 0.680562 0
0.804918 0.143464 0
0.531114 -0.329820 0
0.252979 -0.241418 0
0.164534 -0.178897 0
0.186937 -0.255114 0
0.327203 -0.283530 0
0.535026 -0.209422 0
0.741054 -0.078232 0
0.900155 0.043118 0
1.005498 0.120856 0
1.059924 0.168275 0
1.071580 0.202798 0
1.037948 0.269684 0
0.984125 0.396268 0
0.978097 0.419398 0
0.897520 0.337152 0
0.699346 0.318187 0
0.494074 0.405524 0
0.354406 0.566938 0
0.295689 0.688581 0
0.359446 0.643766 0
0.519994 0.430239 0
0.668262 0.157797 0
0.771724 -0.071206 0
0.815627 -0.174728 0
0.794587 -0.187222 0
0.697470 -0.234180 0
0.555796 -0.378897 0
0.442728 -0.546006 0
0.429364 -0.608455 0
0.517543 -0.548891 0
0.636075 -0.439982 0
0.718588 -0.352582 0
0.754011 -0.317429 0
0.757967 -0.327265 0
0.755512 -0.357505 0
0.775111 -0.370729 0
0.824961 -0.339073 0
0.879936 -0.271480 0
0.910297 -0.192511 0
0.910210 -0.113841 0
0.896937 -0.034399 0
0.889911 0.050822 0
0.897503 0.140827 0
0.919054 0.227475 0
0.956441 0.295657 0
0.996330 0.326672 0
1.033210 0.308171 0
1.058258 0.251981 0
1.052995 0.220309 0
0.980600 0.285726 0
0.828735 0.395774 0
0.707725 0.452585 0
0.615585 0.438898 0
0.563159 0.375570 0
0.547361 0.303567 0
0.557737 0.249862 0
0.590339 0.207582 0
0.632486 0.163499 0
0.670771 0.121320 0
0.694510 0.093742 0
0.700250 0.087309 0
0.693439 0.095844 0
0.685707 0.106388 0
0.686581 0.112460 0
0.704947 0.109716 0
0.743466 0.092358 0
0.791435 0.062030 0
0.838757 0.029255 0
0.886235 -0.005802 0
0.931075 -0.048322 0
0.969493 -0.088009 0
0.999666 -0.113642 0
1.021719 -0.128171 0
1.033079 -0.136368 0
1.035353 -0.134214 0
1.039579 -0.116209 0
1.011542 -0.071414 0
1.006219 -0.037130 0
1.000000 -0.020785 0
0.994678 -0.078140 0
0.995927 -0.143148 0
0.981891 -0.241993 0
0.986930 -0.350338 0
0.965930 -0.547114 0
1.117484 -1.029969 0
0.775683 -0.676993 0
-0.000536 0.000000 0
-0.002547 0.000000 0
0.458627 -0.035414 0
0.453190 0.034092 0
0.285650 0.013252 0
0.596968 -0.071713 0
0.975487 0.010146 0
1.016912 0.125980 0
1.050933 0.304609 0
1.146936 0.504554 0
1.144120 0.684849 0
1.125760 0.754255 0
1.039484 0.740848 0
1.145800 0.503297 0
0.933028 0.339681 0
0.318893 0.375939 0
-0.054323 0.159568 0
-0.157510 -0.127020 0
-0.156226 -0.333298 0
-0.087029 -0.464326 0
0.065055 -0.463954 0
0.299237 -0.344044 0
0.554356 -0.169509 0
0.755004 -0.007296 0
0.886534 0.116008 0
0.955387 0.195168 0
0.969465 0.286530 0
0.972336 0.387412 0
1.016863 0.423325 0
0.992070 0.446387 0
0.897486 0.512325 0
0.774171 0.586628 0
0.703121 0.639525 0
0.730466 0.618231 0
0.848623 0.473350 0
0.975321 0.268891 0
1.057921 0.067041 0
1.078940 -0.091993 0
1.045548 -0.157912 0
0.993730 -0.148326 0
0.936689 -0.142423 0
0.878206 -0.229887 0
0.786211 -0.406921 0
0.657801 -0.576789 0
0.578977 -0.639470 0
0.615992 -0.571106 0
0.699727 -0.444572 0
0.779900 -0.346491 0
0.835119 -0.308944 0
0.850653 -0.329780 0
0.833108 -0.375384 0
0.827795 -0.385430 0
0.866046 -0.326531 0
0.916845 -0.221785 0
0.941219 -0.114388 0
0.940841 -0.026371 0
0.939510 0.050998 0
0.948496 0.127684 0
0.963763 0.199788 0
0.984053 0.259535 0
1.002830 0.297156 0
1.002096 0.308516 0
0.959703 0.296924 0
0.882805 0.305902 0
0.777305 0.387290 0
0.681728 0.495658 0
0.613940 0.536579 0
0.593579 0.480012 0
0.613439 0.371488 0
0.647960 0.272225 0
0.687102 0.205441 0
0.728997 0.161008 0
0.767522 0.125771 0
0.796261 0.098574 0
0.814672 0.084395 0
0.829216 0.083093 0
0.848278 0.085842 0
0.875685 0.082194 0
0.907865 0.070901 0
0.948573 0.052354 0
0.994717 0.031153 0
1.039006 0.012896 0
1.077013 -0.010255 0
1.113319 -0.041990 0
1.143534 -0.075600 0
1.163260 -0.103143 0
1.173715 -0.119124 0
1.178256 -0.123229 0
1.173825 -0.117776 0
1.158848 -0.105003 0
1.134835 -0.088030 0
1.107703 -0.057935 0
1.101190 -0.035570 0
1.000000 -0.016911 0
0.998710 -0.073610 0
0.974256 -0.133234 0
0.975540 -0.223611 0
0.904507 -0.318797 0
0.898892 -0.582865 0
0.614011 -0.680539 0
0.000000 0.000867 0
-0.626832 0.270263 0
-0.511936 0.000000 0
0.000000 0.000000 0
-0.035914 0.195666 0
0.029304 -0.088506 0
-0.051756 -0.617078 0
0.391805 -0.279282 0
0.606186 0.184661 0
0.794845 0.271756 0
0.867776 0.421566 0
0.901758 0.567393 0
0.846293 0.620144 0
0.724850 0.603927 0
0.683741 0.787014 0
0.293927 0.970368 0
0.060283 0.657528 0
0.049421 0.234982 0
0.036645 -0.076997 0
0.045867 -0.325597 0
0.040415 -0.504813 0
0.049541 -0.595690 0
0.134760 -0.567535 0
0.316376 -0.412651 0
0.522793 -0.211324 0
0.711533 -0.032110 0
0.844850 0.119866 0
0.911123 0.252733 0
0.964853 0.348869 0
1.022827 0.399663 0
1.054060 0.456527 0
1.074869 0.536085 0
1.098563 0.599888 0
1.135956 0.610641 0
1.209844 0.543077 0
1.294884 0.398910 0
1.347638 0.220940 0
1.370585 0.054177 0
1.336149 -0.058834 0
1.263276 -0.089520 0
1.189704 -0.078364 0
1.156343 -0.118657 0
1.153200 -0.228422 0
1.129298 -0.325603 0
1.046459 -0.401222 0
0.890648 -0.507083 0
0.706920 -0.560734 0
0.620056 -0.516493 0
0.620297 -0.452823 0
0.676400 -0.398021 0
0.750233 -0.355496 0
0.799842 -0.347873 0
0.814240 -0.372014 0
0.837112 -0.360533 0
0.894829 -0.267687 0
0.954217 -0.137840 0
0.981875 -0.032693 0
1.001864 0.043164 0
1.016173 0.116572 0
1.027268 0.191915 0
1.031985 0.256587 0
1.026929 0.308626 0
1.005337 0.351296 0
0.961291 0.371270 0
0.882325 0.402704 0
0.771237 0.486800 0
0.694907 0.559137 0
0.687975 0.540733 0
0.730904 0.439399 0
0.783085 0.321189 0
0.820510 0.229903 0
0.852541 0.168825 0
0.881732 0.127162 0
0.906300 0.096236 0
0.924818 0.074171 0
0.939812 0.060787 0
0.956599 0.053703 0
0.978773 0.049376 0
1.005347 0.046802 0
1.032294 0.039574 0
1.059841 0.022866 0
1.085434 0.001927 0
1.112558 -0.020264 0
1.142682 -0.045056 0
1.170653 -0.072322 0
1.192843 -0.098261 0
1.208122 -0.118187 0
1.217644 -0.128635 0
1.223064 -0.128278 0
1.224298 -0.116958 0
1.220598 -0.095220 0
1.211376 -0.065060 0
1.196460 -0.037767 0
1.192517 -0.025673 0
1.000000 -0.019509 0
0.994460 -0.052413 0
0.968870 -0.119985 0
0.949117 -0.172251 0
0.876351 -0.273697 0
0.801705 -0.256625 0
0.447217 -0.219296 0
0.317391 -0.151198 0
0.000000 0.000000 0
0.000000 0.000000 0
0.000000 0.000000 0
0.000000 0.000000 0
0.191380 0.024804 0
-0.091796 -0.434219 0
-0.225341 -0.647801 0
0.294724 -0.277064 0
0.483077 0.043014 0
0.651243 0.397637 0
0.706396 0.706329 0
0.420776 0.931159 0
0.158702 0.903397 0
-0.109067 0.934216 0
0.015287 0.963136 0
0.124232 0.620442 0
0.176671 0.183204 0
0.227872 -0.123469 0
0.291720 -0.337070 0
0.348991 -0.468002 0
0.368274 -0.558301 0
0.347680 -0.610880 0
0.357802 -0.557544 0
0.460557 -0.402454 0
0.611290 -0.206050 0
0.755491 -0.004424 0
0.862401 0.166526 0
0.952024 0.275707 0
1.033221 0.334116 0
1.109022 0.394345 0
1.190663 0.467822 0
1.281728 0.525540 0
1.377388 0.528243 0
1.474822 0.459301 0
1.553542 0.335555 0
1.593642 0.193188 0
1.583678 0.078529 0
1.517667 0.015315 0
1.426180 -0.011470 0
1.353226 -0.041394 0
1.313040 -0.105920 0
1.268093 -0.202844 0
1.205076 -0.300183 0
1.157629 -0.338141 0
1.099206 -0.299932 0
0.928621 -0.300516 0
0.721614 -0.357951 0
0.592185 -0.402838 0
0.544090 -0.438883 0
0.558929 -0.453224 0
0.631477 -0.439393 0
0.715320 -0.422703 0
0.769931 -0.407123 0
0.821660 -0.338893 0
0.906117 -0.201437 0
0.990438 -0.074021 0