# vtk DataFile Version 2.0
generated by CFD-lab course output (written by Tobias Neckel) 
ASCII

DATASET STRUCTURED_GRID
DIMENSIONS  101 21 1 
POINTS 2121 float

0.000000 0.000000 0
0.100000 0.000000 0
0.200000 0.000000 0
0.300000 0.000000 0
0.400000 0.000000 0
0.500000 0.000000 0
0.600000 0.000000 0
0.700000 0.000000 0
0.800000 0.000000 0
0.900000 0.000000 0
1.000000 0.000000 0
1.100000 0.000000 0
1.200000 0.000000 0
1.300000 0.000000 0
1.400000 0.000000 0
1.500000 0.000000 0
1.600000 0.000000 0
1.700000 0.000000 0
1.800000 0.000000 0
1.900000 0.000000 0
2.000000 0.000000 0
2.100000 0.000000 0
2.200000 0.000000 0
2.300000 0.000000 0
2.400000 0.000000 0
2.500000 0.000000 0
2.600000 0.000000 0
2.700000 0.000000 0
2.800000 0.000000 0
2.900000 0.000000 0
3.000000 0.000000 0
3.100000 0.000000 0
3.200000 0.000000 0
3.300000 0.000000 0
3.400000 0.000000 0
3.500000 0.000000 0
3.600000 0.000000 0
3.700000 0.000000 0
3.800000 0.000000 0
3.900000 0.000000 0
4.000000 0.000000 0
4.100000 0.000000 0
4.200000 0.000000 0
4.300000 0.000000 0
4.400000 0.000000 0
4.500000 0.000000 0
4.600000 0.000000 0
4.700000 0.000000 0
4.800000 0.000000 0
4.900000 0.000000 0
5.000000 0.000000 0
5.100000 0.000000 0
5.200000 0.000000 0
5.300000 0.000000 0
5.400000 0.000000 0
5.500000 0.000000 0
5.600000 0.000000 0
5.700000 0.000000 0
5.800000 0.000000 0
5.900000 0.000000 0
6.000000 0.000000 0
6.100000 0.000000 0
6.200000 0.000000 0
6.300000 0.000000 0
6.400000 0.000000 0
6.500000 0.000000 0
6.600000 0.000000 0
6.700000 0.000000 0
6.800000 0.000000 0
6.900000 0.000000 0
7.000000 0.000000 0
7.100000 0.000000 0
7.200000 0.000000 0
7.300000 0.000000 0
7.400000 0.000000 0
7.500000 0.000000 0
7.600000 0.000000 0
7.700000 0.000000 0
7.800000 0.000000 0
7.900000 0.000000 0
8.000000 0.000000 0
8.100000 0.000000 0
8.200000 0.000000 0
8.300000 0.000000 0
8.400000 0.000000 0
8.500000 0.000000 0
8.600000 0.000000 0
8.700000 0.000000 0
8.800000 0.000000 0
8.900000 0.000000 0
9.000000 0.000000 0
9.100000 0.000000 0
9.200000 0.000000 0
9.300000 0.000000 0
9.400000 0.000000 0
9.500000 0.000000 0
9.600000 0.000000 0
9.700000 0.000000 0
9.800000 0.000000 0
9.900000 0.000000 0
10.000000 0.000000 0
0.000000 0.100000 0
0.100000 0.100000 0
0.200000 0.100000 0
0.300000 0.100000 0
0.400000 0.100000 0
0.500000 0.100000 0
0.600000 0.100000 0
0.700000 0.100000 0
0.800000 0.100000 0
0.900000 0.100000 0
1.000000 0.100000 0
1.100000 0.100000 0
1.200000 0.100000 0
1.300000 0.100000 0
1.400000 0.100000 0
1.500000 0.100000 0
1.600000 0.100000 0
1.700000 0.100000 0
1.800000 0.100000 0
1.900000 0.100000 0
2.000000 0.100000 0
2.100000 0.100000 0
2.200000 0.100000 0
2.300000 0.100000 0
2.400000 0.100000 0
2.500000 0.100000 0
2.600000 0.100000 0
2.700000 0.100000 0
2.800000 0.100000 0
2.900000 0.100000 0
3.000000 0.100000 0
3.100000 0.100000 0
3.200000 0.100000 0
3.300000 0.100000 0
3.400000 0.100000 0
3.500000 0.100000 0
3.600000 0.100000 0
3.700000 0.100000 0
3.800000 0.100000 0
3.900000 0.100000 0
4.000000 0.100000 0
4.100000 0.100000 0
4.200000 0.100000 0
4.300000 0.100000 0
4.400000 0.100000 0
4.500000 0.100000 0
4.600000 0.100000 0
4.700000 0.100000 0
4.800000 0.100000 0
4.900000 0.100000 0
5.000000 0.100000 0
5.100000 0.100000 0
5.200000 0.100000 0
5.300000 0.100000 0
5.400000 0.100000 0
5.500000 0.100000 0
5.600000 0.100000 0
5.700000 0.100000 0
5.800000 0.100000 0
5.900000 0.100000 0
6.000000 0.100000 0
6.100000 0.100000 0
6.200000 0.100000 0
6.300000 0.100000 0
6.400000 0.100000 0
6.500000 0.100000 0
6.600000 0.100000 0
6.700000 0.100000 0
6.800000 0.100000 0
6.900000 0.100000 0
7.000000 0.100000 0
7.100000 0.100000 0
7.200000 0.100000 0
7.300000 0.100000 0
7.400000 0.100000 0
7.500000 0.100000 0
7.600000 0.100000 0
7.700000 0.100000 0
7.800000 0.100000 0
7.900000 0.100000 0
8.000000 0.100000 0
8.100000 0.100000 0
8.200000 0.100000 0
8.300000 0.100000 0
8.400000 0.100000 0
8.500000 0.100000 0
8.600000 0.100000 0
8.700000 0.100000 0
8.800000 0.100000 0
8.900000 0.100000 0
9.000000 0.100000 0
9.100000 0.100000 0
9.200000 0.100000 0
9.300000 0.100000 0
9.400000 0.100000 0
9.500000 0.100000 0
9.600000 0.100000 0
9.700000 0.100000 0
9.800000 0.100000 0
9.900000 0.100000 0
10.000000 0.100000 0
0.000000 0.200000 0
0.100000 0.200000 0
0.200000 0.200000 0
0.300000 0.200000 0
0.400000 0.200000 0
0.500000 0.200000 0
0.600000 0.200000 0
0.700000 0.200000 0
0.800000 0.200000 0
0.900000 0.200000 0
1.000000 0.200000 0
1.100000 0.200000 0
1.200000 0.200000 0
1.300000 0.200000 0
1.400000 0.200000 0
1.500000 0.200000 0
1.600000 0.200000 0
1.700000 0.200000 0
1.800000 0.200000 0
1.900000 0.200000 0
2.000000 0.200000 0
2.100000 0.200000 0
2.200000 0.200000 0
2.300000 0.200000 0
2.400000 0.200000 0
2.500000 0.200000 0
2.600000 0.200000 0
2.700000 0.200000 0
2.800000 0.200000 0
2.900000 0.200000 0
3.000000 0.200000 0
3.100000 0.200000 0
3.200000 0.200000 0
3.300000 0.200000 0
3.400000 0.200000 0
3.500000 0.200000 0
3.600000 0.200000 0
3.700000 0.200000 0
3.800000 0.200000 0
3.900000 0.200000 0
4.000000 0.200000 0
4.100000 0.200000 0
4.200000 0.200000 0
4.300000 0.200000 0
4.400000 0.200000 0
4.500000 0.200000 0
4.600000 0.200000 0
4.700000 0.200000 0
4.800000 0.200000 0
4.900000 0.200000 0
5.000000 0.200000 0
5.100000 0.200000 0
5.200000 0.200000 0
5.300000 0.200000 0
5.400000 0.200000 0
5.500000 0.200000 0
5.600000 0.200000 0
5.700000 0.200000 0
5.800000 0.200000 0
5.900000 0.200000 0
6.000000 0.200000 0
6.100000 0.200000 0
6.200000 0.200000 0
6.300000 0.200000 0
6.400000 0.200000 0
6.500000 0.200000 0
6.600000 0.200000 0
6.700000 0.200000 0
6.800000 0.200000 0
6.900000 0.200000 0
7.000000 0.200000 0
7.100000 0.200000 0
7.200000 0.200000 0
7.300000 0.200000 0
7.400000 0.200000 0
7.500000 0.200000 0
7.600000 0.200000 0
7.700000 0.200000 0
7.800000 0.200000 0
7.900000 0.200000 0
8.000000 0.200000 0
8.100000 0.200000 0
8.200000 0.200000 0
8.300000 0.200000 0
8.400000 0.200000 0
8.500000 0.200000 0
8.600000 0.200000 0
8.700000 0.200000 0
8.800000 0.200000 0
8.900000 0.200000 0
9.000000 0.200000 0
9.100000 0.200000 0
9.200000 0.200000 0
9.300000 0.200000 0
9.400000 0.200000 0
9.500000 0.200000 0
9.600000 0.200000 0
9.700000 0.200000 0
9.800000 0.200000 0
9.900000 0.200000 0
10.000000 0.200000 0
0.000000 0.300000 0
0.100000 0.300000 0
0.200000 0.300000 0
0.300000 0.300000 0
0.400000 0.300000 0
0.500000 0.300000 0
0.600000 0.300000 0
0.700000 0.300000 0
0.800000 0.300000 0
0.900000 0.300000 0
1.000000 0.300000 0
1.100000 0.300000 0
1.200000 0.300000 0
1.300000 0.300000 0
1.400000 0.300000 0
1.500000 0.300000 0
1.600000 0.300000 0
1.700000 0.300000 0
1.800000 0.300000 0
1.900000 0.300000 0
2.000000 0.300000 0
2.100000 0.300000 0
2.200000 0.300000 0
2.300000 0.300000 0
2.400000 0.300000 0
2.500000 0.300000 0
2.600000 0.300000 0
2.700000 0.300000 0
2.800000 0.300000 0
2.900000 0.300000 0
3.000000 0.300000 0
3.100000 0.300000 0
3.200000 0.300000 0
3.300000 0.300000 0
3.400000 0.300000 0
3.500000 0.300000 0
3.600000 0.300000 0
3.700000 0.300000 0
3.800000 0.300000 0
3.900000 0.300000 0
4.000000 0.300000 0
4.100000 0.300000 0
4.200000 0.300000 0
4.300000 0.300000 0
4.400000 0.300000 0
4.500000 0.300000 0
4.600000 0.300000 0
4.700000 0.300000 0
4.800000 0.300000 0
4.900000 0.300000 0
5.000000 0.300000 0
5.100000 0.300000 0
5.200000 0.300000 0
5.300000 0.300000 0
5.400000 0.300000 0
5.500000 0.300000 0
5.600000 0.300000 0
5.700000 0.300000 0
5.800000 0.300000 0
5.900000 0.300000 0
6.000000 0.300000 0
6.100000 0.300000 0
6.200000 0.300000 0
6.300000 0.300000 0
6.400000 0.300000 0
6.500000 0.300000 0
6.600000 0.300000 0
6.700000 0.300000 0
6.800000 0.300000 0
6.900000 0.300000 0
7.000000 0.300000 0
7.100000 0.300000 0
7.200000 0.300000 0
7.300000 0.300000 0
7.400000 0.300000 0
7.500000 0.300000 0
7.600000 0.300000 0
7.700000 0.300000 0
7.800000 0.300000 0
7.900000 0.300000 0
8.000000 0.300000 0
8.100000 0.300000 0
8.200000 0.300000 0
8.300000 0.300000 0
8.400000 0.300000 0
8.500000 0.300000 0
8.600000 0.300000 0
8.700000 0.300000 0
8.800000 0.300000 0
8.900000 0.300000 0
9.000000 0.300000 0
9.100000 0.300000 0
9.200000 0.300000 0
9.300000 0.300000 0
9.400000 0.300000 0
9.500000 0.300000 0
9.600000 0.300000 0
9.700000 0.300000 0
9.800000 0.300000 0
9.900000 0.300000 0
10.000000 0.300000 0
0.000000 0.400000 0
0.100000 0.400000 0
0.200000 0.400000 0
0.300000 0.400000 0
0.400000 0.400000 0
0.500000 0.400000 0
0.600000 0.400000 0
0.700000 0.400000 0
0.800000 0.400000 0
0.900000 0.400000 0
1.000000 0.400000 0
1.100000 0.400000 0
1.200000 0.400000 0
1.300000 0.400000 0
1.400000 0.400000 0
1.500000 0.400000 0
1.600000 0.400000 0
1.700000 0.400000 0
1.800000 0.400000 0
1.900000 0.400000 0
2.000000 0.400000 0
2.100000 0.400000 0
2.200000 0.400000 0
2.300000 0.400000 0
2.400000 0.400000 0
2.500000 0.400000 0
2.600000 0.400000 0
2.700000 0.400000 0
2.800000 0.400000 0
2.900000 0.400000 0
3.000000 0.400000 0
3.100000 0.400000 0
3.200000 0.400000 0
3.300000 0.400000 0
3.400000 0.400000 0
3.500000 0.400000 0
3.600000 0.400000 0
3.700000 0.400000 0
3.800000 0.400000 0
3.900000 0.400000 0
4.000000 0.400000 0
4.100000 0.400000 0
4.200000 0.400000 0
4.300000 0.400000 0
4.400000 0.400000 0
4.500000 0.400000 0
4.600000 0.400000 0
4.700000 0.400000 0
4.800000 0.400000 0
4.900000 0.400000 0
5.000000 0.400000 0
5.100000 0.400000 0
5.200000 0.400000 0
5.300000 0.400000 0
5.400000 0.400000 0
5.500000 0.400000 0
5.600000 0.400000 0
5.700000 0.400000 0
5.800000 0.400000 0
5.900000 0.400000 0
6.000000 0.400000 0
6.100000 0.400000 0
6.200000 0.400000 0
6.300000 0.400000 0
6.400000 0.400000 0
6.500000 0.400000 0
6.600000 0.400000 0
6.700000 0.400000 0
6.800000 0.400000 0
6.900000 0.400000 0
7.000000 0.400000 0
7.100000 0.400000 0
7.200000 0.400000 0
7.300000 0.400000 0
7.400000 0.400000 0
7.500000 0.400000 0
7.600000 0.400000 0
7.700000 0.400000 0
7.800000 0.400000 0
7.900000 0.400000 0
8.000000 0.400000 0
8.100000 0.400000 0
8.200000 0.400000 0
8.300000 0.400000 0
8.400000 0.400000 0
8.500000 0.400000 0
8.600000 0.400000 0
[...]
POINT_DATA 2121 

VECTORS velocity float
0.500000 0.000000 0
0.000047 0.000000 0
0.000040 0.000000 0
-0.000138 0.000000 0
-0.000515 0.000000 0
-0.000893 0.000000 0
-0.000971 0.000000 0
-0.000610 0.000000 0
0.000096 0.000000 0
0.000960 0.000000 0
0.001792 0.000000 0
0.002470 0.000000 0
0.002928 0.000000 0
0.003126 0.000000 0
0.003027 0.000000 0
0.002602 0.000000 0
0.001913 0.000000 0
0.001136 0.000000 0
0.000452 0.000000 0
0.000034 0.000000 0
-0.000903 0.000000 0
-0.000927 0.000000 0
-0.000987 0.000000 0
-0.001061 0.000000 0
-0.001090 0.000000 0
-0.001073 0.000000 0
-0.001032 0.000000 0
-0.000983 0.000000 0
-0.000932 0.000000 0
-0.000881 0.000000 0
-0.000830 0.000000 0
-0.000779 0.000000 0
-0.000730 0.000000 0
-0.000683 0.000000 0
-0.000639 0.000000 0
-0.000599 0.000000 0
-0.000561 0.000000 0
-0.000527 0.000000 0
-0.000496 0.000000 0
-0.000468 0.000000 0
-0.000443 0.000000 0
-0.000421 0.000000 0
-0.000402 0.000000 0
-0.000385 0.000000 0
-0.000370 0.000000 0
-0.000357 0.000000 0
-0.000345 0.000000 0
-0.000335 0.000000 0
-0.000326 0.000000 0
-0.000319 0.000000 0
-0.000311 0.000000 0
-0.000306 0.000000 0
-0.000305 0.000000 0
-0.000299 0.000000 0
-0.000293 0.000000 0
-0.000289 0.000000 0
-0.000286 0.000000 0
-0.000283 0.000000 0
-0.000281 0.000000 0
-0.000280 0.000000 0
-0.000278 0.000000 0
-0.000277 0.000000 0
-0.000276 0.000000 0
-0.000275 0.000000 0
-0.000274 0.000000 0
-0.000274 0.000000 0
-0.000273 0.000000 0
-0.000272 0.000000 0
-0.000272 0.000000 0
-0.000272 0.000000 0
-0.000271 0.000000 0
-0.000271 0.000000 0
-0.000270 0.000000 0
-0.000270 0.000000 0
-0.000270 0.000000 0
-0.000269 0.000000 0
-0.000269 0.000000 0
-0.000269 0.000000 0
-0.000268 0.000000 0
-0.000268 0.000000 0
-0.000268 0.000000 0
-0.000268 0.000000 0
-0.000267 0.000000 0
-0.000267 0.000000 0
-0.000267 0.000000 0
-0.000266 0.000000 0
-0.000266 0.000000 0
-0.000266 0.000000 0
-0.000265 0.000000 0
-0.000265 0.000000 0
-0.000264 0.000000 0
-0.000264 0.000000 0
-0.000264 0.000000 0
-0.000263 0.000000 0
-0.000263 0.000000 0
-0.000262 0.000000 0
-0.000262 0.000000 0
-0.000261 0.000000 0
-0.000260 0.000000 0
-0.000259 0.000000 0
-0.000257 0.000000 0
1.000000 -0.003997 0
1.008379 -0.012682 0
1.026695 -0.022736 0
1.056197 -0.033954 0
1.097766 -0.045229 0
1.150745 -0.053900 0
1.210871 -0.056492 0
1.270416 -0.050161 0
1.317590 -0.035086 0
1.344152 -0.014927 0
1.347522 0.005828 0
1.329844 0.023770 0
1.295725 0.037036 0
1.250847 0.045013 0
1.200814 0.047959 0
1.150430 0.046511 0
1.104047 0.041642 0
1.064653 0.034744 0
1.033300 0.027086 0
1.009638 0.020613 0
0.993469 0.014452 0
0.982592 0.009138 0
0.975595 0.005895 0
0.971622 0.003218 0
0.969774 0.001286 0
0.969327 0.000044 0
0.969809 -0.000735 0
0.970912 -0.001231 0
0.972415 -0.001543 0
0.974152 -0.001720 0
0.975997 -0.001794 0
0.977859 -0.001791 0
0.979674 -0.001734 0
0.981399 -0.001641 0
0.983008 -0.001526 0
0.984488 -0.001400 0
0.985833 -0.001269 0
0.987046 -0.001142 0
0.988130 -0.001023 0
0.989092 -0.000904 0
0.989945 -0.000794 0
0.990694 -0.000702 0
0.991349 -0.000617 0
0.991925 -0.000540 0
0.992430 -0.000473 0
0.992870 -0.000413 0
0.993252 -0.000358 0
0.993583 -0.000310 0
0.993868 -0.000267 0
0.994114 -0.000231 0
0.994327 -0.000187 0
0.994506 -0.000157 0
0.994673 -0.000158 0
0.994817 -0.000146 0
0.994940 -0.000120 0
0.995045 -0.000098 0
0.995134 -0.000081 0
0.995210 -0.000068 0
0.995274 -0.000057 0
0.995328 -0.000048 0
0.995375 -0.000041 0
0.995414 -0.000034 0
0.995448 -0.000029 0
0.995477 -0.000024 0
0.995502 -0.000020 0
0.995523 -0.000017 0
0.995541 -0.000014 0
0.995556 -0.000012 0
0.995570 -0.000010 0
0.995581 -0.000008 0
0.995591 -0.000006 0
0.995599 -0.000005 0
0.995607 -0.000004 0
0.995613 -0.000003 0
0.995618 -0.000002 0
0.995623 -0.000001 0
0.995627 -0.000001 0
0.995631 -0.000000 0
0.995634 0.000000 0
0.995637 0.000001 0
0.995640 0.000001 0
0.995642 0.000001 0
0.995644 0.000001 0
0.995647 0.000001 0
0.995649 0.000001 0
0.995651 0.000001 0
0.995654 0.000001 0
0.995657 0.000000 0
0.995660 -0.000001 0
0.995665 -0.000002 0
0.995670 -0.000003 0
0.995677 -0.000005 0
0.995687 -0.000008 0
0.995701 -0.000013 0
0.995719 -0.000020 0
0.995746 -0.000029 0
0.995785 -0.000056 0
0.995845 -0.000078 0
0.995936 -0.000210 0
0.996096 -0.000429 0
0.996326 -0.000514 0
1.000000 -0.008400 0
1.007546 -0.026726 0
1.026956 -0.047836 0
1.058937 -0.071088 0
1.103969 -0.094564 0
1.162446 -0.113120 0
1.230505 -0.119686 0
1.302094 -0.106733 0
1.357309 -0.073748 0
1.385613 -0.029942 0
1.385304 0.014299 0
1.360956 0.051789 0
1.318869 0.078990 0
1.266157 0.094905 0
1.209107 0.100412 0
1.152144 0.096763 0
1.101023 0.085773 0
1.059598 0.070743 0
1.028092 0.055012 0
1.005515 0.039828 0
0.991895 0.027044 0
0.982632 0.017873 0
0.977113 0.010969 0
0.974122 0.005820 0
0.972867 0.002294 0
0.972846 -0.000035 0
0.973704 -0.001585 0
0.975153 -0.002606 0
0.976960 -0.003240 0
0.978950 -0.003582 0
0.980994 -0.003707 0
0.983006 -0.003676 0
0.984930 -0.003539 0
0.986731 -0.003334 0
0.988390 -0.003089 0
0.989901 -0.002825 0
0.991263 -0.002557 0
0.992483 -0.002296 0
0.993565 -0.002045 0
0.994523 -0.001815 0
0.995369 -0.001602 0
0.996111 -0.001403 0
0.996761 -0.001231 0
0.997329 -0.001081 0
0.997823 -0.000945 0
0.998251 -0.000821 0
0.998623 -0.000712 0
0.998945 -0.000615 0
0.999223 -0.000531 0
0.999466 -0.000458 0
0.999665 -0.000391 0
0.999865 -0.000346 0
1.000030 -0.000310 0
1.000161 -0.000266 0
1.000273 -0.000227 0
1.000371 -0.000193 0
1.000457 -0.000163 0
1.000530 -0.000138 0
1.000593 -0.000117 0
1.000646 -0.000099 0
1.000693 -0.000084 0
1.000732 -0.000071 0
1.000766 -0.000060 0
1.000795 -0.000051 0
1.000820 -0.000044 0
1.000842 -0.000037 0
1.000860 -0.000031 0
1.000876 -0.000026 0
1.000890 -0.000022 0
1.000902 -0.000018 0
1.000912 -0.000015 0
1.000921 -0.000013 0
1.000929 -0.000010 0
1.000935 -0.000009 0
1.000941 -0.000007 0
1.000947 -0.000006 0
1.000951 -0.000004 0
1.000955 -0.000003 0
1.000959 -0.000003 0
1.000962 -0.000002 0
1.000965 -0.000001 0
1.000968 -0.000001 0
1.000971 -0.000001 0
1.000973 -0.000001 0
1.000976 -0.000001 0
1.000979 -0.000001 0
1.000981 -0.000002 0
1.000985 -0.000003 0
1.000988 -0.000004 0
1.000993 -0.000006 0
1.000998 -0.000009 0
1.001005 -0.000013 0
1.001014 -0.000019 0
1.001026 -0.000028 0
1.001042 -0.000041 0
1.001063 -0.000061 0
1.001094 -0.000095 0
1.001125 -0.000147 0
1.001187 -0.000247 0
1.001163 -0.000386 0
1.001104 -0.000454 0
1.000000 -0.011559 0
1.001918 -0.039658 0
1.022355 -0.074136 0
1.057270 -0.110975 0
1.105673 -0.148745 0
1.171400 -0.180443 0
1.251825 -0.196146 0
1.351299 -0.176970 0
1.420782 -0.118609 0
1.450293 -0.042926 0
1.440689 0.030482 0
1.403598 0.090203 0
1.345380 0.131832 0
1.274777 0.154773 0
1.204002 0.161970 0
1.136583 0.154593 0
1.079707 0.134186 0
1.037649 0.107673 0
1.008322 0.081167 0
0.990263 0.056809 0
0.979295 0.037334 0
0.973280 0.023920 0
0.970166 0.014405 0
0.968747 0.007464 0
0.968647 0.002561 0
0.969619 -0.000794 0
0.971348 -0.003041 0
0.973526 -0.004488 0
0.975915 -0.005341 0
0.978350 -0.005754 0
0.980725 -0.005850 0
0.982973 -0.005727 0
0.985059 -0.005458 0
0.986965 -0.005101 0
0.988688 -0.004696 0
0.990231 -0.004273 0
0.991603 -0.003851 0
0.992820 -0.003444 0
0.993890 -0.003063 0
0.994829 -0.002708 0
0.995648 -0.002383 0
0.996366 -0.002093 0
0.996996 -0.001834 0
0.997542 -0.001601 0
0.998013 -0.001395 0
0.998420 -0.001213 0
0.998773 -0.001052 0
0.999078 -0.000909 0
0.999344 -0.000788 0
0.999567 -0.000673 0
0.999765 -0.000585 0
0.999953 -0.000522 0
1.000101 -0.000454 0
1.000227 -0.000388 0
1.000333 -0.000330 0
1.000424 -0.000281 0
1.000503 -0.000239 0
1.000571 -0.000204 0
1.000630 -0.000173 0
1.000680 -0.000147 0
1.000723 -0.000125 0
1.000760 -0.000107 0
1.000792 -0.000091 0
1.000819 -0.000077 0
1.000843 -0.000066 0
1.000863 -0.000056 0
1.000880 -0.000047 0
1.000895 -0.000040 0
1.000908 -0.000034 0
1.000919 -0.000029 0
1.000929 -0.000024 0
1.000937 -0.000020 0
1.000945 -0.000017 0
1.000951 -0.000014 0
1.000957 -0.000012 0
1.000962 -0.000010 0
1.000966 -0.000008 0
1.000970 -0.000007 0
1.000973 -0.000005 0
1.000977 -0.000004 0
1.000979 -0.000004 0
1.000982 -0.000003 0
1.000985 -0.000003 0
1.000987 -0.000002 0
1.000989 -0.000003 0
1.000992 -0.000003 0
1.000994 -0.000004 0
1.000997 -0.000005 0
1.001000 -0.000007 0
1.001003 -0.000010 0
1.001007 -0.000014 0
1.001013 -0.000019 0
1.001019 -0.000027 0
1.001027 -0.000039 0
1.001037 -0.000056 0
1.001050 -0.000080 0
1.001064 -0.000116 0
1.001077 -0.000169 0
1.001086 -0.000246 0
1.001059 -0.000344 0
1.001001 -0.000394 0
1.000000 -0.010334 0
1.001721 -0.049102 0
1.010543 -0.103197 0
1.048053 -0.154414 0
1.097776 -0.208701 0
1.170073 -0.259280 0
1.267079 -0.299591 0
1.429038 -0.275694 0
1.515044 -0.172747 0
1.544730 -0.049854 0
1.529371 0.060991 0
1.463980 0.147095 0
1.381335 0.207808 0
1.308197 0.236281 0
1.251744 0.238604 0
1.158002 0.221057 0
1.065729 0.184706 0
1.009751 0.142127 0
0.981763 0.102397 0
0.969891 0.068854 0
0.963566 0.044026 0
0.960429 0.027001 0
0.959606 0.015501 0
0.960387 0.007339 0
0.962311 0.001421 0
0.965012 -0.002737 0
0.968142 -0.005492 0
0.971417 -0.007174 0
0.974640 -0.008065 0
0.977689 -0.008392 0
0.980502 -0.008330 0
0.983053 -0.008011 0
0.985338 -0.007531 0
0.987367 -0.006963 0
0.989157 -0.006355 0
0.990729 -0.005740 0
0.992102 -0.005146 0
0.993302 -0.004582 0
0.994347 -0.004054 0
0.995250 -0.003573 0
0.996037 -0.003139 0
0.996720 -0.002751 0
0.997310 -0.002406 0
0.997820 -0.002097 0
0.998260 -0.001823 0
0.998639 -0.001582 0
0.998966 -0.001370 0
0.999248 -0.001186 0
0.999487 -0.001018 0
0.999695 -0.000879 0
0.999894 -0.000777 0
1.000054 -0.000681 0
1.000186 -0.000582 0
1.000297 -0.000497 0
1.000394 -0.000425 0
1.000477 -0.000362 0
1.000548 -0.000309 0
1.000610 -0.000264 0
1.000663 -0.000225 0
1.000708 -0.000192 0
1.000747 -0.000163 0
1.000781 -0.000139 0
1.000809 -0.000119 0
1.000834 -0.000101 0
1.000856 -0.000086 0
1.000874 -0.000073 0
1.000890 -0.000062 0
1.000903 -0.000053 0
1.000915 -0.000045 0
1.000925 -0.000038 0
1.000934 -0.000032 0
1.000942 -0.000027 0
1.000948 -0.000023 0
1.000954 -0.000019 0
1.000959 -0.000016 0
1.000964 -0.000013 0
1.000968 -0.000011 0
1.000972 -0.000009 0
1.000975 -0.000008 0
1.000978 -0.000007 0
1.000980 -0.000005 0
1.000983 -0.000005 0
1.000985 -0.000004 0
1.000987 -0.000004 0
1.000989 -0.000004 0
1.000991 -0.000004 0
1.000993 -0.000005 0
1.000995 -0.000007 0
1.000998 -0.000009 0
1.001000 -0.000012 0
1.001003 -0.000017 0
1.001006 -0.000023 0
1.001009 -0.000032 0
1.001013 -0.000045 0
1.001017 -0.000062 0
1.001021 -0.000087 0
1.001023 -0.000121 0
1.001020 -0.000167 0
1.001008 -0.000227 0
1.000974 -0.000299 0
1.000917 -0.000336 0
1.000000 -0.013297 0
1.006730 -0.050222 0
0.999429 -0.120477 0
1.027526 -0.198217 0
1.070954 -0.270772 0
1.137285 -0.349753 0
1.246610 -0.455117 0
1.544540 -0.424940 0
1.623616 -0.234306 0
1.623520 -0.057257 0
1.616371 0.111229 0
1.563712 0.238236 0
1.445661 0.287613 0
1.282865 0.284362 0
1.091694 0.312163 0
0.962865 0.340606 0
0.917051 0.282435 0
0.911386 0.191637 0
0.929689 0.121025 0
0.940565 0.075005 0
0.942631 0.046795 0
0.943310 0.027879 0
0.945541 0.014446 0
0.949438 0.004757 0
0.954284 -0.002065 0
0.959432 -0.006625 0
0.964469 -0.009447 0
0.969168 -0.010985 0
0.973423 -0.011612 0
0.977201 -0.011617 0
0.980512 -0.011215 0
0.983389 -0.010563 0
0.985875 -0.009772 0
0.988016 -0.008920 0
0.989858 -0.008058 0
0.991436 -0.007218 0
0.992794 -0.006423 0
0.993953 -0.005689 0
0.994950 -0.005011 0
0.995806 -0.004397 0
0.996542 -0.003853 0
0.997173 -0.003367 0
0.997715 -0.002933 0
0.998179 -0.002551 0
0.998576 -0.002214 0
0.998915 -0.001919 0
0.999209 -0.001661 0
0.999455 -0.001431 0
0.999674 -0.001234 0
0.999875 -0.001079 0
1.000044 -0.000943 0
1.000174 -0.000813 0
1.000288 -0.000697 0
1.000386 -0.000596 0
1.000470 -0.000509 0
1.000542 -0.000435 0
1.000604 -0.000372 0
1.000658 -0.000317 0
1.000703 -0.000271 0
1.000743 -0.000231 0
1.000777 -0.000197 0
1.000806 -0.000168 0
1.000831 -0.000143 0
1.000853 -0.000122 0
1.000871 -0.000104 0
1.000887 -0.000089 0
1.000901 -0.000076 0
1.000913 -0.000064 0
1.000923 -0.000055 0
1.000932 -0.000046 0
1.000940 -0.000039 0
1.000947 -0.000033 0
1.000953 -0.000028 0
1.000958 -0.000024 0
1.000963 -0.000020 0
1.000967 -0.000017 0
1.000970 -0.000014 0
1.000973 -0.000012 0
1.000976 -0.000010 0
1.000979 -0.000008 0
1.000981 -0.000007 0
1.000984 -0.000006 0
1.000986 -0.000006 0
1.000987 -0.000005 0
1.000989 -0.000005 0
1.000991 -0.000005 0
1.000992 -0.000006 0
1.000994 -0.000008 0
1.000995 -0.000010 0
1.000996 -0.000013 0
1.000997 -0.000018 0
1.000998 -0.000024 0
1.000999 -0.000033 0
1.000999 -0.000045 0
1.000997 -0.000062 0
1.000994 -0.000084 0
1.000987 -0.000114 0
1.000973 -0.000152 0
1.000950 -0.000198 0
1.000911 -0.000251 0
1.000855 -0.000279 0
1.000000 -0.017082 0
1.003430 -0.048554 0
1.002728 -0.124003 0
1.000180 -0.225947 0
1.025976 -0.318468 0
1.055456 -0.434944 0
1.198901 -0.706854 0
1.554966 -0.652707 0
1.504716 -0.251731 0
1.433876 -0.042612 0
1.451047 0.120797 0
1.485422 0.317802 0
1.416844 0.488652 0
1.278149 0.590245 0
1.119169 0.558602 0
1.049887 0.395697 0
1.014834 0.236183 0
0.972242 0.129487 0
0.943004 0.073217 0
0.924244 0.055910 0
0.918884 0.041279 0
0.921441 0.024091 0
0.928184 0.009372 0
0.936680 -0.001406 0
0.945435 -0.008573 0
0.953645 -0.012922 0
0.960959 -0.015229 0
0.967285 -0.016128 0
0.972663 -0.016098 0
0.977191 -0.015481 0
0.980983 -0.014518 0
0.984149 -0.013373 0
0.986791 -0.012159 0
0.988997 -0.010946 0
0.990849 -0.009775 0
0.992399 -0.008676 0
0.993697 -0.007663 0
0.994792 -0.006738 0
0.995714 -0.005906 0
0.996497 -0.005165 0
0.997164 -0.004506 0
0.997727 -0.003924 0
0.998204 -0.003411 0
0.998612 -0.002959 0
0.998962 -0.002559 0
0.999245 -0.002214 0
0.999495 -0.001909 0
0.999710 -0.001650 0
0.999914 -0.001438 0
1.000079 -0.001248 0
1.000209 -0.001077 0
1.000317 -0.000925 0
1.000409 -0.000793 0
1.000489 -0.000679 0
1.000558 -0.000581 0
1.000617 -0.000496 0
1.000669 -0.000424 0
1.000712 -0.000362 0
1.000750 -0.000309 0
1.000783 -0.000264 0
1.000811 -0.000226 0
1.000835 -0.000193 0
1.000856 -0.000165 0
1.000874 -0.000140 0
1.000890 -0.000120 0
1.000903 -0.000102 0
1.000914 -0.000087 0
1.000924 -0.000074 0
1.000933 -0.000063 0
1.000941 -0.000054 0
1.000947 -0.000046 0
1.000953 -0.000039 0
1.000958 -0.000033 0
1.000962 -0.000028 0
1.000966 -0.000023 0
1.000970 -0.000020 0
1.000973 -0.000017 0
1.000976 -0.000014 0
1.000978 -0.000012 0
1.000981 -0.000010 0
1.000983 -0.000009 0
1.000984 -0.000007 0
1.000986 -0.000007 0
1.000988 -0.000006 0
1.000989 -0.000006 0
1.000990 -0.000006 0
1.000991 -0.000007 0
1.000992 -0.000008 0
1.000993 -0.000010 0
1.000993 -0.000013 0
1.000992 -0.000017 0
1.000991 -0.000023 0
1.000989 -0.000031 0
1.000986 -0.000042 0
1.000980 -0.000056 0
1.000971 -0.000075 0
1.000957 -0.000099 0
1.000936 -0.000128 0
1.000906 -0.000163 0
1.000865 -0.000202 0
1.000809 -0.000222 0
1.000000 -0.016746 0
0.995759 -0.052975 0
1.002143 -0.117237 0
0.978330 -0.221474 0
0.993082 -0.326057 0
0.945215 -0.522687 0
1.058132 -0.954636 0
0.748245 -0.617540 0
-0.006382 0.000000 0
-0.003822 0.000000 0
0.626698 0.063272 0
0.748687 0.272437 0
0.984760 0.494884 0
1.093898 0.582035 0
1.156382 0.540422 0
1.139893 0.444938 0
1.058446 0.360078 0
0.975320 0.263466 0
0.910018 0.169022 0
0.881467 0.099122 0
0.880634 0.049596 0
0.891987 0.018577 0
0.907311 -0.000794 0
0.922778 -0.012494 0
0.936738 -0.019031 0
0.948635 -0.022150 0
0.958458 -0.023087 0
0.966432 -0.022689 0
0.972857 -0.021519 0
0.978021 -0.019938 0
0.982175 -0.018173 0
0.985518 -0.016371 0
0.988211 -0.014621 0
0.990398 -0.012978 0
0.992184 -0.011460 0
0.993649 -0.010066 0
0.994846 -0.008816 0
0.995828 -0.007706 0
0.996646 -0.006716 0
0.997331 -0.005847 0
0.997911 -0.005083 0
0.998384 -0.004407 0
0.998764 -0.003818 0
0.999113 -0.003308 0
0.999399 -0.002847 0
0.999624 -0.002452 0
0.999842 -0.002125 0
1.000026 -0.001850 0
1.000175 -0.001603 0
1.000293 -0.001374 0
1.000390 -0.001180 0
1.000472 -0.001013 0
1.000543 -0.000869 0
1.000604 -0.000744 0
1.000656 -0.000637 0
1.000701 -0.000545 0
1.000740 -0.000466 0
1.000774 -0.000398 0
1.000803 -0.000340 0
1.000828 -0.000291 0
1.000849 -0.000249 0
1.000868 -0.000212 0
1.000884 -0.000181 0
1.000898 -0.000155 0
1.000910 -0.000132 0
1.000920 -0.000113 0
1.000929 -0.000096 0
1.000937 -0.000082 0
1.000944 -0.000070 0
1.000950 -0.000059 0
1.000955 -0.000050 0
1.000960 -0.000043 0
1.000964 -0.000036 0
1.000967 -0.000031 0
1.000971 -0.000026 0
1.000973 -0.000022 0
1.000976 -0.000019 0
1.000978 -0.000016 0
1.000980 -0.000013 0
1.000982 -0.000011 0
1.000984 -0.000010 0
1.000986 -0.000008 0
1.000987 -0.000007 0
1.000988 -0.000006 0
1.000989 -0.000006 0
1.000990 -0.000006 0
1.000991 -0.000006 0
1.000991 -0.000007 0
1.000990 -0.000009 0
1.000990 -0.000011 0
1.000988 -0.000015 0
1.000985 -0.000019 0
1.000981 -0.000026 0
1.000975 -0.000034 0
1.000965 -0.000046 0
1.000952 -0.000060 0
1.000934 -0.000078 0
1.000909 -0.000100 0
1.000875 -0.000124 0
1.000831 -0.000152 0
1.000776 -0.000166 0
1.000000 -0.012861 0
0.994256 -0.050722 0
0.988800 -0.106585 0
0.973310 -0.216897 0
0.925218 -0.285363 0
0.886871 -0.500002 0
0.659806 -0.623114 0
0.000000 -0.006899 0
-0.672102 0.253403 0
-0.613555 0.000000 0
0.000000 0.000000 0
0.077839 -0.025694 0
0.285612 0.143438 0
0.574035 0.418621 0
0.697045 0.512604 0
0.715890 0.493630 0
0.718713 0.400753 0
0.735948 0.277913 0
0.759209 0.167068 0
0.790543 0.085292 0
0.823287 0.030757 0
0.855639 -0.002588 0
0.885079 -0.021421 0
0.910044 -0.030833 0
0.930193 -0.034431 0
0.945970 -0.034643 0
0.958122 -0.033027 0
0.967431 -0.030528 0
0.974571 -0.027688 0
0.980077 -0.024800 0
0.984347 -0.022015 0
0.987671 -0.019410 0
0.990250 -0.017039 0
0.992281 -0.014919 0
0.993901 -0.013026 0
0.995212 -0.011338 0
0.996256 -0.009842 0
0.997065 -0.008538 0
0.997743 -0.007410 0
0.998289 -0.006430 0
0.998788 -0.005559 0
0.999121 -0.004777 0
0.999407 -0.004139 0
0.999685 -0.003593 0
0.999898 -0.003070 0
1.000080 -0.002657 0
1.000229 -0.002311 0
1.000351 -0.001983 0
1.000439 -0.001705 0
1.000517 -0.001463 0
1.000582 -0.001255 0
1.000638 -0.001077 0
1.000686 -0.000923 0
1.000726 -0.000791 0
1.000761 -0.000677 0
1.000791 -0.000580 0
1.000817 -0.000496 0
1.000840 -0.000424 0
1.000859 -0.000363 0
1.000876 -0.000310 0
1.000891 -0.000265 0
1.000903 -0.000227 0
1.000914 -0.000194 0
1.000924 -0.000165 0
1.000932 -0.000141 0
1.000939 -0.000120 0
1.000945 -0.000103 0
1.000951 -0.000088 0
1.000956 -0.000075 0
1.000960 -0.000064 0
1.000964 -0.000054 0
1.000967 -0.000046 0
1.000970 -0.000039 0
1.000973 -0.000033 0
1.000975 -0.000028 0
1.000977 -0.000024 0
1.000979 -0.000020 0
1.000981 -0.000017 0
1.000983 -0.000014 0
1.000984 -0.000012 0
1.000986 -0.000010 0
1.000987 -0.000009 0
1.000988 -0.000008 0
1.000989 -0.000007 0
1.000990 -0.000006 0
1.000990 -0.000006 0
1.000990 -0.000006 0
1.000990 -0.000006 0
1.000989 -0.000007 0
1.000987 -0.000009 0
1.000985 -0.000011 0
1.000981 -0.000014 0
1.000975 -0.000018 0
1.000966 -0.000024 0
1.000955 -0.000032 0
1.000939 -0.000042 0
1.000918 -0.000054 0
1.000890 -0.000068 0
1.000854 -0.000084 0
1.000809 -0.000101 0
1.000754 -0.000110 0
1.000000 -0.011023 0
0.995822 -0.041801 0
0.982241 -0.096302 0
0.960571 -0.157903 0
0.878407 -0.239629 0
0.823054 -0.257286 0
0.491026 -0.167595 0
0.316675 -0.057560 0
0.000000 0.000000 0
0.000000 0.000000 0
0.000000 0.000000 0
0.000000 0.000000 0
-0.027086 -0.002706 0
0.136659 0.170598 0
0.340129 0.398564 0
0.437495 0.423267 0
0.496323 0.340018 0
0.554953 0.222968 0
0.626021 0.114424 0
0.697727 0.035042 0
0.764111 -0.015502 0
0.821361 -0.043217 0
0.867600 -0.055200 0
0.902931 -0.057610 0
0.928953 -0.054958 0
0.947780 -0.050080 0
0.961335 -0.044548 0
0.971155 -0.039139 0
0.978348 -0.034166 0
0.983682 -0.029714 0
0.987715 -0.025768 0
0.990744 -0.022274 0
0.992962 -0.019231 0
0.994705 -0.016630 0
0.996006 -0.014391 0
0.997083 -0.012420 0
0.997961 -0.010670 0
0.998488 -0.009193 0
0.998985 -0.007940 0
0.999409 -0.006893 0
0.999729 -0.005915 0
0.999970 -0.005026 0
1.000174 -0.004381 0
1.000316 -0.003798 0
1.000435 -0.003242 0
1.000547 -0.002783 0
1.000608 -0.002396 0
1.000665 -0.002058 0