# vtk DataFile Version 2.0
generated by CFD-lab course output (written by Tobias Neckel) 
ASCII

DATASET STRUCTURED_GRID
DIMENSIONS  101 21 1 
POINTS 2121 float

0.000000 0.000000 0
0.100000 0.000000 0
0.200000 0.000000 0
0.300000 0.000000 0
0.400000 0.000000 0
0.500000 0.000000 0
0.600000 0.000000 0
0.700000 0.000000 0
0.800000 0.000000 0
0.900000 0.000000 0
1.000000 0.000000 0
1.100000 0.000000 0
1.200000 0.000000 0
1.300000 0.000000 0
1.400000 0.000000 0
1.500000 0.000000 0
1.600000 0.000000 0
1.700000 0.000000 0
1.800000 0.000000 0
1.900000 0.000000 0
2.000000 0.000000 0
2.100000 0.000000 0
2.200000 0.000000 0
2.300000 0.000000 0
2.400000 0.000000 0
2.500000 0.000000 0
2.600000 0.000000 0
2.700000 0.000000 0
2.800000 0.000000 0
2.900000 0.000000 0
3.000000 0.000000 0
3.100000 0.000000 0
3.200000 0.000000 0
3.300000 0.000000 0
3.400000 0.000000 0
3.500000 0.000000 0
3.600000 0.000000 0
3.700000 0.000000 0
3.800000 0.000000 0
3.900000 0.000000 0
4.000000 0.000000 0
4.100000 0.000000 0
4.200000 0.000000 0
4.300000 0.000000 0
4.400000 0.000000 0
4.500000 0.000000 0
4.600000 0.000000 0
4.700000 0.000000 0
4.800000 0.000000 0
4.900000 0.000000 0
5.000000 0.000000 0
5.100000 0.000000 0
5.200000 0.000000 0
5.300000 0.000000 0
5.400000 0.000000 0
5.500000 0.000000 0
5.600000 0.000000 0
5.700000 0.000000 0
5.800000 0.000000 0
5.900000 0.000000 0
6.000000 0.000000 0
6.100000 0.000000 0
6.200000 0.000000 0
6.300000 0.000000 0
6.400000 0.000000 0
6.500000 0.000000 0
6.600000 0.000000 0
6.700000 0.000000 0
6.800000 0.000000 0
6.900000 0.000000 0
7.000000 0.000000 0
7.100000 0.000000 0
7.200000 0.000000 0
7.300000 0.000000 0
7.400000 0.000000 0
7.500000 0.000000 0
7.600000 0.000000 0
7.700000 0.000000 0
7.800000 0.000000 0
7.900000 0.000000 0
8.000000 0.000000 0
8.100000 0.000000 0
8.200000 0.000000 0
8.300000 0.000000 0
8.400000 0.000000 0
8.500000 0.000000 0
8.600000 0.000000 0
8.700000 0.000000 0
8.800000 0.000000 0
8.900000 0.000000 0
9.000000 0.000000 0
9.100000 0.000000 0
9.200000 0.000000 0
9.300000 0.000000 0
9.400000 0.000000 0
9.500000 0.000000 0
9.600000 0.000000 0
9.700000 0.000000 0
9.800000 0.000000 0
9.900000 0.000000 0
10.000000 0.000000 0
0.000000 0.100000 0
0.100000 0.100000 0
0.200000 0.100000 0
0.300000 0.100000 0
0.400000 0.100000 0
0.500000 0.100000 0
0.600000 0.100000 0
0.700000 0.100000 0
0.800000 0.100000 0
0.900000 0.100000 0
1.000000 0.100000 0
1.100000 0.100000 0
1.200000 0.100000 0
1.300000 0.100000 0
1.400000 0.100000 0
1.500000 0.100000 0
1.600000 0.100000 0
1.700000 0.100000 0
1.800000 0.100000 0
1.900000 0.100000 0
2.000000 0.100000 0
2.100000 0.100000 0
2.200000 0.100000 0
2.300000 0.100000 0
2.400000 0.100000 0
2.500000 0.100000 0
2.600000 0.100000 0
2.700000 0.100000 0
2.800000 0.100000 0
2.900000 0.100000 0
3.000000 0.100000 0
3.100000 0.100000 0
3.200000 0.100000 0
3.300000 0.100000 0
3.400000 0.100000 0
3.500000 0.100000 0
3.600000 0.100000 0
3.700000 0.100000 0
3.800000 0.100000 0
3.900000 0.100000 0
4.000000 0.100000 0
4.100000 0.100000 0
4.200000 0.100000 0
4.300000 0.100000 0
4.400000 0.100000 0
4.500000 0.100000 0
4.600000 0.100000 0
4.700000 0.100000 0
4.800000 0.100000 0
4.900000 0.100000 0
5.000000 0.100000 0
5.100000 0.100000 0
5.200000 0.100000 0
5.300000 0.100000 0
5.400000 0.100000 0
5.500000 0.100000 0
5.600000 0.100000 0
5.700000 0.100000 0
5.800000 0.100000 0
5.900000 0.100000 0
6.000000 0.100000 0
6.100000 0.100000 0
6.200000 0.100000 0
6.300000 0.100000 0
6.400000 0.100000 0
6.500000 0.100000 0
6.600000 0.100000 0
6.700000 0.100000 0
6.800000 0.100000 0
6.900000 0.100000 0
7.000000 0.100000 0
7.100000 0.100000 0
7.200000 0.100000 0
7.300000 0.100000 0
7.400000 0.100000 0
7.500000 0.100000 0
7.600000 0.100000 0
7.700000 0.100000 0
7.800000 0.100000 0
7.900000 0.100000 0
8.000000 0.100000 0
8.100000 0.100000 0
8.200000 0.100000 0
8.300000 0.100000 0
8.400000 0.100000 0
8.500000 0.100000 0
8.600000 0.100000 0
8.700000 0.100000 0
8.800000 0.100000 0
8.900000 0.100000 0
9.000000 0.100000 0
9.100000 0.100000 0
9.200000 0.100000 0
9.300000 0.100000 0
9.400000 0.100000 0
9.500000 0.100000 0
9.600000 0.100000 0
9.700000 0.100000 0
9.800000 0.100000 0
9.900000 0.100000 0
10.000000 0.100000 0
0.000000 0.200000 0
0.100000 0.200000 0
0.200000 0.200000 0
0.300000 0.200000 0
0.400000 0.200000 0
0.500000 0.200000 0
0.600000 0.200000 0
0.700000 0.200000 0
0.800000 0.200000 0
0.900000 0.200000 0
1.000000 0.200000 0
1.100000 0.200000 0
1.200000 0.200000 0
1.300000 0.200000 0
1.400000 0.200000 0
1.500000 0.200000 0
1.600000 0.200000 0
1.700000 0.200000 0
1.800000 0.200000 0
1.900000 0.200000 0
2.000000 0.200000 0
2.100000 0.200000 0
2.200000 0.200000 0
2.300000 0.200000 0
2.400000 0.200000 0
2.500000 0.200000 0
2.600000 0.200000 0
2.700000 0.200000 0
2.800000 0.200000 0
2.900000 0.200000 0
3.000000 0.200000 0
3.100000 0.200000 0
3.200000 0.200000 0
3.300000 0.200000 0
3.400000 0.200000 0
3.500000 0.200000 0
3.600000 0.200000 0
3.700000 0.200000 0
3.800000 0.200000 0
3.900000 0.200000 0
4.000000 0.200000 0
4.100000 0.200000 0
4.200000 0.200000 0
4.300000 0.200000 0
4.400000 0.200000 0
4.500000 0.200000 0
4.600000 0.200000 0
4.700000 0.200000 0
4.800000 0.200000 0
4.900000 0.200000 0
5.000000 0.200000 0
5.100000 0.200000 0
5.200000 0.200000 0
5.300000 0.200000 0
5.400000 0.200000 0
5.500000 0.200000 0
5.600000 0.200000 0
5.700000 0.200000 0
5.800000 0.200000 0
5.900000 0.200000 0
6.000000 0.200000 0
6.100000 0.200000 0
6.200000 0.200000 0
6.300000 0.200000 0
6.400000 0.200000 0
6.500000 0.200000 0
6.600000 0.200000 0
6.700000 0.200000 0
6.800000 0.200000 0
6.900000 0.200000 0
7.000000 0.200000 0
7.100000 0.200000 0
7.200000 0.200000 0
7.300000 0.200000 0
7.400000 0.200000 0
7.500000 0.200000 0
7.600000 0.200000 0
7.700000 0.200000 0
7.800000 0.200000 0
7.900000 0.200000 0
8.000000 0.200000 0
8.100000 0.200000 0
8.200000 0.200000 0
8.300000 0.200000 0
8.400000 0.200000 0
8.500000 0.200000 0
8.600000 0.200000 0
8.700000 0.200000 0
8.800000 0.200000 0
8.900000 0.200000 0
9.000000 0.200000 0
9.100000 0.200000 0
9.200000 0.200000 0
9.300000 0.200000 0
9.400000 0.200000 0
9.500000 0.200000 0
9.600000 0.200000 0
9.700000 0.200000 0
9.800000 0.200000 0
9.900000 0.200000 0
10.000000 0.200000 0
0.000000 0.300000 0
0.100000 0.300000 0
0.200000 0.300000 0
0.300000 0.300000 0
0.400000 0.300000 0
0.500000 0.300000 0
0.600000 0.300000 0
0.700000 0.300000 0
0.800000 0.300000 0
0.900000 0.300000 0
1.000000 0.300000 0
1.100000 0.300000 0
1.200000 0.300000 0
1.300000 0.300000 0
1.400000 0.300000 0
1.500000 0.300000 0
1.600000 0.300000 0
1.700000 0.300000 0
1.800000 0.300000 0
1.900000 0.300000 0
2.000000 0.300000 0
2.100000 0.300000 0
2.200000 0.300000 0
2.300000 0.300000 0
2.400000 0.300000 0
2.500000 0.300000 0
2.600000 0.300000 0
2.700000 0.300000 0
2.800000 0.300000 0
2.900000 0.300000 0
3.000000 0.300000 0
3.100000 0.300000 0
3.200000 0.300000 0
3.300000 0.300000 0
3.400000 0.300000 0
3.500000 0.300000 0
3.600000 0.300000 0
3.700000 0.300000 0
3.800000 0.300000 0
3.900000 0.300000 0
4.000000 0.300000 0
4.100000 0.300000 0
4.200000 0.300000 0
4.300000 0.300000 0
4.400000 0.300000 0
4.500000 0.300000 0
4.600000 0.300000 0
4.700000 0.300000 0
4.800000 0.300000 0
4.900000 0.300000 0
5.000000 0.300000 0
5.100000 0.300000 0
5.200000 0.300000 0
5.300000 0.300000 0
5.400000 0.300000 0
5.500000 0.300000 0
5.600000 0.300000 0
5.700000 0.300000 0
5.800000 0.300000 0
5.900000 0.300000 0
6.000000 0.300000 0
6.100000 0.300000 0
6.200000 0.300000 0
6.300000 0.300000 0
6.400000 0.300000 0
6.500000 0.300000 0
6.600000 0.300000 0
6.700000 0.300000 0
6.800000 0.300000 0
6.900000 0.300000 0
7.000000 0.300000 0
7.100000 0.300000 0
7.200000 0.300000 0
7.300000 0.300000 0
7.400000 0.300000 0
7.500000 0.300000 0
7.600000 0.300000 0
7.700000 0.300000 0
7.800000 0.300000 0
7.900000 0.300000 0
8.000000 0.300000 0
8.100000 0.300000 0
8.200000 0.300000 0
8.300000 0.300000 0
8.400000 0.300000 0
8.500000 0.300000 0
8.600000 0.300000 0
8.700000 0.300000 0
8.800000 0.300000 0
8.900000 0.300000 0
9.000000 0.300000 0
9.100000 0.300000 0
9.200000 0.300000 0
9.300000 0.300000 0
9.400000 0.300000 0
9.500000 0.300000 0
9.600000 0.300000 0
9.700000 0.300000 0
9.800000 0.300000 0
9.900000 0.300000 0
10.000000 0.300000 0
0.000000 0.400000 0
0.100000 0.400000 0
0.200000 0.400000 0
0.300000 0.400000 0
0.400000 0.400000 0
0.500000 0.400000 0
0.600000 0.400000 0
0.700000 0.400000 0
0.800000 0.400000 0
0.900000 0.400000 0
1.000000 0.400000 0
1.100000 0.400000 0
1.200000 0.400000 0
1.300000 0.400000 0
1.400000 0.400000 0
1.500000 0.400000 0
1.600000 0.400000 0
1.700000 0.400000 0
1.800000 0.400000 0
1.900000 0.400000 0
2.000000 0.400000 0
2.100000 0.400000 0
2.200000 0.400000 0
2.300000 0.400000 0
2.400000 0.400000 0
2.500000 0.400000 0
2.600000 0.400000 0
2.700000 0.400000 0
2.800000 0.400000 0
2.900000 0.400000 0
3.000000 0.400000 0
3.100000 0.400000 0
3.200000 0.400000 0
3.300000 0.400000 0
3.400000 0.400000 0
3.500000 0.400000 0
3.600000 0.400000 0
3.700000 0.400000 0
3.800000 0.400000 0
3.900000 0.400000 0
4.000000 0.400000 0
4.100000 0.400000 0
4.200000 0.400000 0
4.300000 0.400000 0
4.400000 0.400000 0
4.500000 0.400000 0
4.600000 0.400000 0
4.700000 0.400000 0
4.800000 0.400000 0
4.900000 0.400000 0
5.000000 0.400000 0
5.100000 0.400000 0
5.200000 0.400000 0
5.300000 0.400000 0
5.400000 0.400000 0
5.500000 0.400000 0
5.600000 0.400000 0
5.700000 0.400000 0
5.800000 0.400000 0
5.900000 0.400000 0
6.000000 0.400000 0
6.100000 0.400000 0
6.200000 0.400000 0
6.300000 0.400000 0
6.400000 0.400000 0
6.500000 0.400000 0
6.600000 0.400000 0
6.700000 0.400000 0
6.800000 0.400000 0
6.900000 0.400000 0
7.000000 0.400000 0
7.100000 0.400000 0
7.200000 0.400000 0
7.300000 0.400000 0
7.400000 0.400000 0
7.500000 0.400000 0
7.600000 0.400000 0
7.700000 0.400000 0
7.800000 0.400000 0
7.900000 0.400000 0
8.000000 0.400000 0
8.100000 0.400000 0
8.200000 0.400000 0
8.300000 0.400000 0
8.400000 0.400000 0
8.500000 0.400000 0
8.600000 0.400000 0
[...]
POINT_DATA 2121 

VECTORS velocity float
0.500000 0.000000 0
-0.000018 0.000000 0
-0.000061 0.000000 0
-0.000127 0.000000 0
-0.000199 0.000000 0
-0.000266 0.000000 0
-0.000323 0.000000 0
-0.000373 0.000000 0
-0.000430 0.000000 0
-0.000503 0.000000 0
-0.000604 0.000000 0
-0.000761 0.000000 0
-0.001010 0.000000 0
-0.001341 0.000000 0
-0.001652 0.000000 0
-0.001688 0.000000 0
-0.001081 0.000000 0
0.000009 0.000000 0
0.001264 0.000000 0
0.002472 0.000000 0
0.003520 0.000000 0
0.004389 0.000000 0
0.004828 0.000000 0
0.004545 0.000000 0
0.005414 0.000000 0
0.007960 0.000000 0
-0.006583 0.000000 0
-0.014341 0.000000 0
0.048928 0.000000 0
0.044135 0.000000 0
0.001770 0.000000 0
-0.029697 0.000000 0
-0.027447 0.000000 0
-0.018913 0.000000 0
-0.013467 0.000000 0
-0.011176 0.000000 0
-0.005306 0.000000 0
0.000832 0.000000 0
0.006456 0.000000 0
0.010676 0.000000 0
0.021519 0.000000 0
0.033424 0.000000 0
0.017663 0.000000 0
0.003275 0.000000 0
-0.005679 0.000000 0
-0.007249 0.000000 0
-0.003972 0.000000 0
0.001504 0.000000 0
0.004255 0.000000 0
0.004572 0.000000 0
0.002844 0.000000 0
-0.000140 0.000000 0
-0.003199 0.000000 0
-0.005327 0.000000 0
-0.005880 0.000000 0
-0.005407 0.000000 0
-0.004296 0.000000 0
-0.003195 0.000000 0
-0.002570 0.000000 0
-0.002489 0.000000 0
-0.002948 0.000000 0
-0.003781 0.000000 0
-0.004814 0.000000 0
-0.005961 0.000000 0
-0.007010 0.000000 0
-0.007606 0.000000 0
-0.007326 0.000000 0
-0.006368 0.000000 0
-0.007334 0.000000 0
-0.010216 0.000000 0
-0.011456 0.000000 0
-0.012629 0.000000 0
-0.013647 0.000000 0
-0.014506 0.000000 0
-0.014779 0.000000 0
-0.013929 0.000000 0
-0.010970 0.000000 0
-0.005164 0.000000 0
0.002700 0.000000 0
0.010527 0.000000 0
0.016840 0.000000 0
0.032254 0.000000 0
0.050761 0.000000 0
0.019953 0.000000 0
0.018027 0.000000 0
0.006198 0.000000 0
-0.006282 0.000000 0
-0.007064 0.000000 0
-0.001971 0.000000 0
-0.000276 0.000000 0
0.000263 0.000000 0
0.003794 0.000000 0
0.007972 0.000000 0
0.008333 0.000000 0
0.006656 0.000000 0
0.004936 0.000000 0
0.003624 0.000000 0
0.002648 0.000000 0
0.001879 0.000000 0
0.001321 0.000000 0
0.001087 0.000000 0
1.000000 -0.002569 0
1.005700 -0.008275 0
1.017786 -0.014983 0
1.037122 -0.022397 0
1.064419 -0.030048 0
1.099864 -0.037076 0
1.142434 -0.042235 0
1.189693 -0.044021 0
1.236328 -0.041952 0
1.278317 -0.037190 0
1.313960 -0.031252 0
1.342825 -0.025443 0
1.365653 -0.021006 0
1.384987 -0.018624 0
1.403967 -0.017412 0
1.424025 -0.014132 0
1.440206 -0.005010 0
1.441687 0.009342 0
1.426061 0.025518 0
1.392885 0.040818 0
1.345015 0.053368 0
1.286315 0.062037 0
1.221713 0.063655 0
1.152813 0.060057 0
1.081026 0.066297 0
1.072432 0.052325 0
1.133952 -0.122312 0
0.966191 -0.104380 0
0.598289 0.327089 0
0.293141 0.435376 0
0.144096 0.047631 0
0.269392 -0.243497 0
0.501465 -0.261922 0
0.705159 -0.189661 0
0.932327 -0.135562 0
1.121233 -0.098939 0
1.224896 -0.051016 0
1.262348 0.009556 0
1.255821 0.063355 0
1.200500 0.120829 0
1.081664 0.260960 0
0.889089 0.366606 0
0.698853 0.262121 0
0.555448 0.069038 0
0.529617 -0.062321 0
0.530531 -0.098004 0
0.506499 -0.056626 0
0.465285 0.006390 0
0.412039 0.044001 0
0.354147 0.049829 0
0.308475 0.026823 0
0.292287 -0.016518 0
0.310539 -0.058538 0
0.358776 -0.081725 0
0.427527 -0.081710 0
0.501108 -0.065587 0
0.563283 -0.043859 0
0.605750 -0.023984 0
0.633978 -0.010780 0
0.653928 -0.005494 0
0.669933 -0.007646 0
0.685049 -0.014759 0
0.701990 -0.024875 0
0.724433 -0.036277 0
0.755950 -0.047058 0
0.800496 -0.053907 0
0.857485 -0.054463 0
0.922226 -0.050472 0
0.984972 -0.052846 0
1.044279 -0.064735 0
1.108188 -0.075588 0
1.181974 -0.082833 0
1.261595 -0.088661 0
1.346220 -0.093470 0
1.434424 -0.094866 0
1.522884 -0.088225 0
1.603708 -0.067221 0
1.657698 -0.026697 0
1.665395 0.030962 0
1.624324 0.093357 0
1.530554 0.168317 0
1.361756 0.293887 0
1.127106 0.338058 0
0.876771 0.211814 0
0.609108 0.109236 0
0.463711 0.032925 0
0.482253 -0.060903 0
0.604108 -0.066622 0
0.714227 -0.015308 0
0.747563 0.016220 0
0.701082 0.030913 0
0.595774 0.063651 0
0.463206 0.096629 0
0.347419 0.096455 0
0.265879 0.071466 0
0.214546 0.047068 0
0.179003 0.028247 0
0.160007 0.016399 0
0.143327 0.005428 0
0.145169 -0.000192 0
0.142666 0.002397 0
1.000000 -0.005685 0
1.005758 -0.017765 0
1.017881 -0.031410 0
1.037473 -0.046621 0
1.065830 -0.062730 0
1.104120 -0.078003 0
1.151729 -0.089818 0
1.207817 -0.093884 0
1.261709 -0.088614 0
1.307829 -0.077623 0
1.345686 -0.064500 0
1.375061 -0.051684 0
1.395990 -0.042154 0
1.412770 -0.038308 0
1.432978 -0.039032 0
1.460195 -0.036233 0
1.486522 -0.017657 0
1.498767 0.014149 0
1.487606 0.048806 0
1.452860 0.081049 0
1.401633 0.106573 0
1.339073 0.123305 0
1.268035 0.133503 0
1.188407 0.140688 0
1.111307 0.080383 0
1.051631 -0.052924 0
0.933974 0.106241 0
0.481255 0.535663 0
0.205422 0.673050 0
0.482378 0.454193 0
0.804202 0.023749 0
0.516095 -0.357371 0
0.158894 -0.435768 0
0.157162 -0.430862 0
0.380690 -0.416075 0
0.681108 -0.292571 0
0.897224 -0.141118 0
1.019584 -0.030927 0
1.071063 0.061846 0
1.065401 0.174154 0
1.019043 0.311408 0
1.032495 0.382809 0
1.049082 0.333638 0
0.993942 0.169233 0
0.904594 0.024914 0
0.820161 0.023115 0
0.689932 0.065242 0
0.560759 0.094456 0
0.497506 0.111135 0
0.471478 0.103560 0
0.439400 0.061856 0
0.386654 -0.002067 0
0.334077 -0.066494 0
0.305009 -0.116992 0
0.316347 -0.142337 0
0.365812 -0.135761 0
0.427743 -0.104647 0
0.483356 -0.070700 0
0.526981 -0.048184 0
0.563696 -0.035961 0
0.595072 -0.031127 0
0.618644 -0.032063 0
0.634821 -0.039390 0
0.648639 -0.053967 0
0.666566 -0.076070 0
0.695019 -0.101543 0
0.743200 -0.121738 0
0.812531 -0.127495 0
0.895114 -0.122061 0
0.970438 -0.123225 0
1.032731 -0.137705 0
1.092940 -0.153416 0
1.156615 -0.164255 0
1.226807 -0.172839 0
1.300647 -0.176674 0
1.372687 -0.169294 0
1.438005 -0.134824 0
1.487474 -0.061698 0
1.512260 0.033363 0
1.508298 0.134830 0
1.463990 0.262556 0
1.383417 0.403436 0
1.316744 0.484974 0
1.172250 0.517985 0
0.950154 0.413048 0
0.832964 0.126843 0
0.795152 -0.140410 0
0.824071 -0.231987 0
0.859443 -0.143468 0
0.851574 0.013132 0
0.761173 0.151776 0
0.610668 0.237863 0
0.470882 0.248342 0
0.383364 0.197314 0
0.330861 0.132859 0
0.294604 0.086862 0
0.262252 0.054526 0
0.240162 0.035662 0
0.212117 0.014824 0
0.202569 0.000648 0
0.200217 0.004533 0
1.000000 -0.008316 0
1.004368 -0.026143 0
1.014645 -0.046693 0
1.032400 -0.070341 0
1.059991 -0.096691 0
1.101045 -0.122971 0
1.154633 -0.145928 0
1.230374 -0.153997 0
1.296812 -0.141960 0
1.347008 -0.121164 0
1.386620 -0.098482 0
1.415781 -0.075744 0
1.430017 -0.058712 0
1.437321 -0.055610 0
1.453437 -0.064835 0
1.488212 -0.067674 0
1.532366 -0.043581 0
1.562487 0.008260 0
1.560224 0.071427 0
1.523788 0.126792 0
1.460422 0.167156 0
1.384352 0.195637 0
1.306915 0.214322 0
1.235154 0.216785 0
1.161273 0.203074 0
1.025211 0.229657 0
0.730567 0.448064 0
0.618952 0.624172 0
0.812971 0.325966 0
1.044924 -0.163404 0
0.960340 0.013913 0
0.496635 0.401810 0
0.125950 0.097011 0
-0.000860 -0.411458 0
0.030199 -0.659509 0
0.258524 -0.615473 0
0.554710 -0.389492 0
0.755856 -0.164284 0
0.865420 0.017537 0
0.915946 0.172848 0
0.947687 0.293866 0
1.006585 0.336566 0
1.056421 0.300673 0
1.078965 0.213525 0
1.009284 0.111459 0
0.923494 0.116657 0
0.830160 0.202775 0
0.762229 0.198814 0
0.696164 0.133280 0
0.626103 0.107933 0
0.610115 0.111645 0
0.611048 0.088802 0
0.561208 0.023105 0
0.441794 -0.063997 0
0.367178 -0.142516 0
0.371373 -0.176985 0
0.404133 -0.161405 0
0.443412 -0.123224 0
0.479133 -0.091122 0
0.512273 -0.073588 0
0.548328 -0.062597 0
0.589340 -0.054511 0
0.634370 -0.054873 0
0.679998 -0.068025 0
0.722666 -0.093442 0
0.760557 -0.130543 0
0.795671 -0.171978 0
0.829572 -0.202390 0
0.874455 -0.210757 0
0.932591 -0.202356 0
0.989618 -0.198093 0
1.033184 -0.206721 0
1.076857 -0.222533 0
1.133034 -0.237507 0
1.196967 -0.240751 0
1.252423 -0.225587 0
1.298509 -0.182012 0
1.335434 -0.100956 0
1.363222 0.010133 0
1.373723 0.141622 0
1.362373 0.293194 0
1.346954 0.441128 0
1.329743 0.549220 0
1.287725 0.578400 0
1.284232 0.448516 0
1.247688 0.187922 0
1.112312 -0.052016 0
0.898963 -0.130919 0
0.785448 -0.042816 0
0.697561 0.114485 0
0.602830 0.271814 0
0.523499 0.353936 0
0.482577 0.323927 0
0.459956 0.236471 0
0.429375 0.160220 0
0.390304 0.115671 0
0.353682 0.082684 0
0.328270 0.066528 0
0.311808 0.043015 0
0.291237 0.011702 0
0.289286 0.006656 0
1.000000 -0.010043 0
1.001997 -0.032397 0
1.009392 -0.059437 0
1.022663 -0.091962 0
1.045907 -0.131370 0
1.089541 -0.172641 0
1.146325 -0.219143 0
1.273062 -0.236060 0
1.355635 -0.205244 0
1.400437 -0.167428 0
1.437312 -0.133271 0
1.467456 -0.095079 0
1.465560 -0.063691 0
1.447169 -0.061726 0
1.445504 -0.089921 0
1.480352 -0.115160 0
1.551221 -0.091930 0
1.605013 -0.013707 0
1.620380 0.087506 0
1.600057 0.180852 0
1.541188 0.246011 0
1.452604 0.276813 0
1.346387 0.282701 0
1.240006 0.286331 0
1.138333 0.290327 0
1.023567 0.377782 0
0.926765 0.512501 0
1.048466 0.453259 0
1.226809 0.247078 0
0.927420 0.306825 0
0.347744 0.572038 0
0.307707 0.477018 0
0.550421 0.061727 0
0.566863 -0.335111 0
0.355482 -0.675460 0
0.218432 -0.817083 0
0.350922 -0.638451 0
0.528239 -0.341638 0
0.659839 -0.098244 0
0.762881 0.091887 0
0.858496 0.220768 0
0.945568 0.274073 0
1.004552 0.261257 0
1.038697 0.216370 0
1.032895 0.180383 0
0.950837 0.202238 0
0.907197 0.226507 0
0.862935 0.228450 0
0.688270 0.247259 0
0.542292 0.189608 0
0.582874 0.076909 0
0.682072 0.046837 0
0.641213 0.102759 0
0.505950 0.077036 0
0.454623 -0.071918 0
0.494447 -0.172718 0
0.543770 -0.176688 0
0.553938 -0.145703 0
0.549870 -0.117047 0
0.554379 -0.105159 0
0.575524 -0.108198 0
0.622581 -0.118107 0
0.697097 -0.130050 0
0.785117 -0.142266 0
0.871216 -0.156633 0
0.940091 -0.174551 0
0.991830 -0.190755 0
1.030508 -0.206282 0
1.052170 -0.225084 0
1.057983 -0.238391 0
1.056236 -0.238301 0
1.052925 -0.240659 0
1.057902 -0.264109 0
1.091414 -0.292953 0
1.150343 -0.296068 0
1.184864 -0.270840 0
1.209801 -0.217840 0
1.228545 -0.126417 0
1.233341 -0.004931 0
1.231644 0.135674 0
1.235342 0.289320 0
1.253234 0.436062 0
1.280354 0.544199 0
1.313985 0.563491 0
1.346177 0.453080 0
1.306915 0.298758 0
1.165362 0.208309 0
0.937561 0.094872 0
0.709024 0.057929 0
0.568095 0.195744 0
0.526613 0.325832 0
0.549646 0.358110 0
0.578548 0.311880 0
0.564614 0.250510 0
0.516680 0.202505 0
0.463989 0.162550 0
0.429963 0.116554 0
0.409110 0.077530 0
0.421127 0.051851 0
0.428245 0.023164 0
0.428804 0.008089 0
1.000000 -0.010303 0
0.999728 -0.035523 0
1.002403 -0.067354 0
1.009511 -0.106851 0
1.020315 -0.163563 0
1.064315 -0.223385 0
1.110744 -0.329445 0
1.353849 -0.363303 0
1.421854 -0.269331 0
1.417247 -0.202838 0
1.428448 -0.165499 0
1.468504 -0.103989 0
1.435127 -0.038422 0
1.356592 -0.035552 0
1.306467 -0.098016 0
1.313984 -0.173389 0
1.406758 -0.168240 0
1.469865 -0.060898 0
1.510882 0.076384 0
1.536212 0.205985 0
1.532518 0.314611 0
1.490174 0.390439 0
1.408503 0.426920 0
1.297732 0.424840 0
1.180354 0.419513 0
1.054418 0.441226 0
1.029030 0.423166 0
1.085178 0.324128 0
0.977182 0.447012 0
0.639704 0.715661 0
0.533566 0.633625 0
0.735220 0.199133 0
0.956001 -0.162144 0
1.097229 -0.216520 0
1.046992 -0.311079 0
0.730101 -0.610914 0
0.420588 -0.699300 0
0.411284 -0.473203 0
0.511607 -0.217106 0
0.622248 -0.025810 0
0.735194 0.111177 0
0.842619 0.190510 0
0.941212 0.207543 0
1.011251 0.185180 0
1.021107 0.199317 0
0.965726 0.242354 0
0.910116 0.290676 0
0.795884 0.417739 0
0.691933 0.453921 0
0.669338 0.213328 0
0.651368 -0.028136 0
0.594038 0.030462 0
0.504980 0.199226 0
0.462174 0.122591 0
0.469061 -0.131015 0
0.532108 -0.266134 0
0.661962 -0.220899 0
0.731457 -0.129327 0
0.715212 -0.091566 0
0.679028 -0.099245 0
0.672813 -0.130801 0
0.705705 -0.176086 0
0.759852 -0.217413 0
0.820898 -0.242146 0
0.884252 -0.248419 0
0.948033 -0.251162 0
1.014719 -0.262399 0
1.081274 -0.262733 0
1.146377 -0.238236 0
1.189207 -0.206426 0
1.195097 -0.193038 0
1.173820 -0.208391 0
1.132852 -0.261026 0
1.101391 -0.329951 0
1.131077 -0.334204 0
1.112892 -0.285051 0
1.083157 -0.225698 0
1.085902 -0.124500 0
1.089614 0.007029 0
1.078566 0.139616 0
1.077768 0.271599 0
1.105082 0.396111 0
1.166736 0.488464 0
1.239050 0.512572 0
1.284070 0.455581 0
1.253250 0.368732 0
1.170577 0.317333 0
1.059762 0.325414 0
0.856799 0.326645 0
0.736419 0.296890 0
0.741598 0.290257 0
0.748507 0.301996 0
0.696183 0.308954 0
0.615469 0.298334 0
0.552969 0.260840 0
0.526490 0.202383 0
0.536611 0.137558 0
0.560235 0.075358 0
0.582004 0.023875 0
0.594175 0.004020 0
0.594643 0.005391 0
1.000000 -0.009761 0
0.998168 -0.034787 0
0.996528 -0.069216 0
0.991970 -0.109870 0
0.996581 -0.186169 0
1.016107 -0.263065 0
1.038497 -0.508673 0
1.387407 -0.547165 0
1.301635 -0.268639 0
1.190701 -0.174019 0
1.096790 -0.184525 0
1.144252 -0.101755 0
1.249835 0.048224 0
1.049624 0.066937 0
0.777530 -0.047311 0
0.742700 -0.215449 0
0.860091 -0.247809 0
0.923031 -0.117830 0
1.013448 0.021160 0
1.180788 0.159217 0
1.276636 0.292051 0
1.319498 0.400829 0
1.325139 0.475144 0
1.312070 0.514481 0
1.261815 0.533641 0
1.193553 0.529106 0
1.141064 0.481741 0
1.052847 0.505107 0
0.840613 0.692551 0
0.767967 0.750440 0
0.856015 0.476523 0
0.951925 0.054584 0
0.936415 -0.300283 0
0.996945 -0.426103 0
1.048067 -0.308333 0
0.855281 -0.190680 0
0.501443 -0.319634 0
0.355082 -0.432657 0
0.399290 -0.309209 0
0.504662 -0.131701 0
0.625063 0.000396 0
0.753680 0.068054 0
0.871435 0.092624 0
0.940790 0.136474 0
0.937543 0.225908 0
0.913587 0.313227 0
0.874801 0.396347 0
0.851354 0.446633 0
0.921499 0.373803 0
0.973520 0.230171 0
0.880986 0.152207 0
0.745003 0.193224 0
0.725516 0.234621 0
0.767021 0.112953 0
0.689526 -0.141854 0
0.567352 -0.365622 0
0.613358 -0.376040 0
0.689879 -0.198955 0
0.686096 -0.064619 0
0.655574 -0.062763 0
0.643188 -0.134878 0
0.664308 -0.205149 0
0.707654 -0.245246 0
0.756289 -0.266669 0
0.801651 -0.283772 0
0.850906 -0.305021 0
0.911803 -0.324000 0
0.982165 -0.337944 0
1.067184 -0.333020 0
1.166567 -0.287115 0
1.242373 -0.222918 0
1.266899 -0.178419 0
1.254333 -0.191685 0
1.146175 -0.291181 0
0.889407 -0.307573 0
0.733316 -0.222925 0
0.687667 -0.190854 0
0.724165 -0.132878 0
0.818850 0.002400 0
0.913387 0.147515 0
0.967616 0.262800 0
1.008927 0.347089 0
1.076084 0.410225 0
1.150829 0.446151 0
1.199172 0.438874 0
1.195998 0.412246 0
1.151983 0.401793 0
1.095665 0.408645 0
1.067501 0.381266 0
1.049105 0.310939 0
0.996335 0.313738 0
0.851640 0.403519 0
0.716427 0.444913 0
0.647121 0.393719 0
0.647794 0.291478 0
0.689550 0.178902 0
0.737278 0.082804 0
0.764347 0.032132 0
0.762721 0.017906 0
0.750540 0.010520 0
0.748500 0.007273 0
1.000000 -0.008460 0
0.997505 -0.032037 0
0.998020 -0.061151 0
0.965259 -0.106899 0
0.983094 -0.187696 0
0.896960 -0.265296 0
1.001471 -0.700740 0
0.684242 -0.553815 0
-0.001370 0.000000 0
-0.000384 0.000000 0
0.399769 -0.121056 0
0.291703 -0.257031 0
0.248032 0.056208 0
0.417682 0.436755 0
0.317666 0.208910 0
0.275910 -0.255948 0
0.053832 -0.348568 0
-0.002793 -0.214254 0
0.155153 -0.181372 0
0.506338 -0.057202 0
0.742440 0.175901 0
0.946061 0.341937 0
1.085960 0.434349 0
1.144754 0.488165 0
1.167359 0.538030 0
1.178325 0.561977 0
1.168872 0.563872 0
1.107043 0.624580 0
1.046486 0.731892 0
1.072453 0.700258 0
1.097489 0.449667 0
1.149589 0.118732 0
1.091842 -0.207164 0
0.791356 -0.328172 0
0.558412 -0.169416 0
0.470712 -0.064290 0
0.438276 -0.199102 0
0.343233 -0.371051 0
0.333124 -0.366687 0
0.420779 -0.251584 0
0.544649 -0.137842 0
0.674735 -0.055864 0
0.769049 0.020432 0
0.816509 0.119071 0
0.842500 0.226520 0
0.880983 0.305095 0
0.933906 0.352907 0
1.018206 0.371040 0
1.099026 0.331754 0
1.121794 0.253839 0
1.094689 0.200378 0
1.075899 0.185930 0
1.112439 0.177206 0
1.142337 0.158579 0
1.079259 0.068653 0
0.954989 -0.189968 0
0.751654 -0.343428 0
0.500097 -0.202068 0
0.390465 -0.057264 0
0.379095 -0.056339 0
0.402753 -0.139538 0
0.451366 -0.240556 0
0.519184 -0.309396 0
0.601582 -0.336147 0
0.676990 -0.343039 0
0.728883 -0.361317 0
0.773022 -0.393661 0
0.841735 -0.418116 0
0.949842 -0.422642 0
1.076869 -0.381618 0
1.175039 -0.293374 0
1.228638 -0.220355 0
1.242492 -0.140306 0
1.068921 0.034970 0
0.712495 0.078650 0
0.454906 -0.083315 0
0.320635 -0.216551 0
0.291448 -0.255688 0
0.411229 -0.182198 0
0.638678 -0.009154 0
0.843068 0.176053 0
0.983234 0.287639 0
1.052355 0.346557 0
1.114485 0.389478 0
1.160600 0.410407 0
1.175289 0.415916 0
1.163902 0.417661 0
1.146649 0.409890 0
1.135437 0.373200 0
1.091497 0.368051 0
0.966461 0.487716 0
0.848695 0.581898 0
0.809343 0.513467 0
0.833510 0.366962 0
0.890915 0.218405 0
0.949075 0.112893 0
0.978227 0.062754 0
0.969559 0.049909 0
0.950532 0.037676 0
0.933318 0.018236 0
0.928329 0.009562 0
1.000000 -0.007255 0
1.001323 -0.032793 0
0.980194 -0.036964 0
0.973739 -0.094938 0
0.921025 -0.117865 0
0.854436 -0.281437 0
0.759549 -0.368572 0
0.000000 0.002294 0
-0.577166 0.123781 0
-0.488611 0.000000 0
0.000000 0.000000 0
-0.131047 0.039993 0
-0.234791 -0.077752 0
-0.064841 -0.002695 0
0.210829 0.094463 0
-0.363280 0.048387 0
-0.628340 0.030896 0
-0.654792 -0.219149 0
-0.467797 -0.487970 0
-0.266650 -0.428068 0
0.133959 -0.147671 0
0.518640 0.057309 0
0.784234 0.276452 0
0.950102 0.433083 0
1.054146 0.500071 0
1.120791 0.527594 0
1.161490 0.553023 0
1.153610 0.627493 0
1.145469 0.727141 0
1.155777 0.699437 0
1.160133 0.399386 0
1.067547 0.060231 0
0.887988 0.057950 0
0.553989 0.107326 0
0.343474 0.012310 0
0.333359 -0.070545 0
0.383078 -0.192156 0
0.363522 -0.327506 0
0.345071 -0.386755 0
0.391418 -0.343227 0
0.484072 -0.253561 0
0.585019 -0.156347 0
0.671021 -0.049152 0
0.743256 0.063021 0
0.820600 0.161433 0
0.912678 0.221819 0
1.009826 0.259124 0
1.109997 0.281512 0
1.198139 0.270213 0
1.248709 0.234505 0
1.266541 0.198100 0
1.279474 0.175472 0
1.292077 0.168180 0
1.294610 0.146130 0
1.300828 0.045492 0
1.217594 -0.038019 0
0.849911 0.078850 0
0.489965 0.162232 0
0.390570 0.056380 0
0.422016 -0.075053 0
0.503321 -0.207152 0
0.575270 -0.321582 0
0.615759 -0.395464 0
0.640107 -0.424479 0
0.668240 -0.411077 0
0.679738 -0.401056 0
0.659912 -0.436855 0
0.655019 -0.514768 0
0.732330 -0.568158 0
0.895197 -0.512316 0
1.054987 -0.374691 0
1.093473 -0.245876 0
0.957843 -0.031972 0
0.733776 0.238812 0
0.605030 0.306438 0
0.471099 0.168930 0
0.303836 -0.027401 0
0.160456 -0.223476 0
0.151371 -0.344835 0
0.344354 -0.284329 0
0.623097 -0.081761 0
0.844131 0.137798 0
0.983794 0.278969 0
1.068471 0.337900 0
1.117751 0.378066 0
1.137183 0.408939 0
1.141693 0.430427 0
1.141513 0.437104 0
1.124657 0.436412 0
1.056629 0.479910 0
0.979728 0.556536 0
0.996161 0.560632 0
1.048179 0.460092 0
1.098241 0.312142 0
1.128507 0.175907 0
1.132989 0.091584 0
1.119686 0.062315 0
1.102051 0.059821 0
1.089768 0.054141 0
1.076466 0.032717 0
1.071297 0.017488 0
1.000000 -0.009772 0
0.996079 -0.012218 0
0.962627 -0.033561 0
0.964336 -0.047724 0
0.866753 -0.068388 0
0.858474 -0.103815 0
0.516546 0.080940 0
0.382086 0.132975 0
0.000000 0.000000 0
0.000000 0.000000 0
0.000000 0.000000 0
0.000000 0.000000 0
0.072222 0.022233 0
-0.066919 -0.008862 0
-0.540472 0.507351 0
-0.920807 0.583222 0
-0.802523 -0.057054 0
-0.719097 -0.374795 0
-0.630377 -0.569512 0
-0.609837 -0.658956 0
-0.220745 -0.609387 0
0.161756 -0.308337 0
0.494069 0.002888 0
0.749027 0.218254 0
0.926010 0.367342 0
1.035634 0.454633 0
1.085019 0.531053 0
1.087239 0.640601 0
1.104464 0.729724 0
1.160012 0.685594 0
1.212168 0.537898 0
1.081706 0.390877 0
0.732959 0.306393 0
0.496570 0.216341 0
0.363957 0.051213 0
0.334449 -0.103896 0
0.353746 -0.229266 0
0.371025 -0.333044 0
0.382695 -0.394583 0
0.412593 -0.390586 0
0.475123 -0.331444 0
0.553681 -0.242814 0
0.637766 -0.137806 0
0.730482 -0.030508 0
0.833639 0.057096 0
0.945124 0.115867 0
1.049311 0.155587 0
1.150728 0.182726 0
1.239882 0.193040 0
1.305638 0.185434 0
1.347312 0.169611 0
1.372108 0.160393 0
1.383356 0.162069 0
1.386270 0.149826 0
1.360816 0.145667 0
1.222374 0.260947 0
1.019088 0.384198 0
0.969089 0.257271 0
1.003149 0.010682 0
1.074470 -0.169093 0
1.152399 -0.292794 0
1.208481 -0.352997 0
1.238567 -0.374236 0