# vtk DataFile Version 2.0
generated by CFD-lab course output (written by Tobias Neckel) 
ASCII

DATASET STRUCTURED_GRID
DIMENSIONS  101 21 1 
POINTS 2121 float

0.000000 0.000000 0
0.100000 0.000000 0
0.200000 0.000000 0
0.300000 0.000000 0
0.400000 0.000000 0
0.500000 0.000000 0
0.600000 0.000000 0
0.700000 0.000000 0
0.800000 0.000000 0
0.900000 0.000000 0
1.000000 0.000000 0
1.100000 0.000000 0
1.200000 0.000000 0
1.300000 0.000000 0
1.400000 0.000000 0
1.500000 0.000000 0
1.600000 0.000000 0
1.700000 0.000000 0
1.800000 0.000000 0
1.900000 0.000000 0
2.000000 0.000000 0
2.100000 0.000000 0
2.200000 0.000000 0
2.300000 0.000000 0
2.400000 0.000000 0
2.500000 0.000000 0
2.600000 0.000000 0
2.700000 0.000000 0
2.800000 0.000000 0
2.900000 0.000000 0
3.000000 0.000000 0
3.100000 0.000000 0
3.200000 0.000000 0
3.300000 0.000000 0
3.400000 0.000000 0
3.500000 0.000000 0
3.600000 0.000000 0
3.700000 0.000000 0
3.800000 0.000000 0
3.900000 0.000000 0
4.000000 0.000000 0
4.100000 0.000000 0
4.200000 0.000000 0
4.300000 0.000000 0
4.400000 0.000000 0
4.500000 0.000000 0
4.600000 0.000000 0
4.700000 0.000000 0
4.800000 0.000000 0
4.900000 0.000000 0
5.000000 0.000000 0
5.100000 0.000000 0
5.200000 0.000000 0
5.300000 0.000000 0
5.400000 0.000000 0
5.500000 0.000000 0
5.600000 0.000000 0
5.700000 0.000000 0
5.800000 0.000000 0
5.900000 0.000000 0
6.000000 0.000000 0
6.100000 0.000000 0
6.200000 0.000000 0
6.300000 0.000000 0
6.400000 0.000000 0
6.500000 0.000000 0
6.600000 0.000000 0
6.700000 0.000000 0
6.800000 0.000000 0
6.900000 0.000000 0
7.000000 0.000000 0
7.100000 0.000000 0
7.200000 0.000000 0
7.300000 0.000000 0
7.400000 0.000000 0
7.500000 0.000000 0
7.600000 0.000000 0
7.700000 0.000000 0
7.800000 0.000000 0
7.900000 0.000000 0
8.000000 0.000000 0
8.100000 0.000000 0
8.200000 0.000000 0
8.300000 0.000000 0
8.400000 0.000000 0
8.500000 0.000000 0
8.600000 0.000000 0
8.700000 0.000000 0
8.800000 0.000000 0
8.900000 0.000000 0
9.000000 0.000000 0
9.100000 0.000000 0
9.200000 0.000000 0
9.300000 0.000000 0
9.400000 0.000000 0
9.500000 0.000000 0
9.600000 0.000000 0
9.700000 0.000000 0
9.800000 0.000000 0
9.900000 0.000000 0
10.000000 0.000000 0
0.000000 0.100000 0
0.100000 0.100000 0
0.200000 0.100000 0
0.300000 0.100000 0
0.400000 0.100000 0
0.500000 0.100000 0
0.600000 0.100000 0
0.700000 0.100000 0
0.800000 0.100000 0
0.900000 0.100000 0
1.000000 0.100000 0
1.100000 0.100000 0
1.200000 0.100000 0
1.300000 0.100000 0
1.400000 0.100000 0
1.500000 0.100000 0
1.600000 0.100000 0
1.700000 0.100000 0
1.800000 0.100000 0
1.900000 0.100000 0
2.000000 0.100000 0
2.100000 0.100000 0
2.200000 0.100000 0
2.300000 0.100000 0
2.400000 0.100000 0
2.500000 0.100000 0
2.600000 0.100000 0
2.700000 0.100000 0
2.800000 0.100000 0
2.900000 0.100000 0
3.000000 0.100000 0
3.100000 0.100000 0
3.200000 0.100000 0
3.300000 0.100000 0
3.400000 0.100000 0
3.500000 0.100000 0
3.600000 0.100000 0
3.700000 0.100000 0
3.800000 0.100000 0
3.900000 0.100000 0
4.000000 0.100000 0
4.100000 0.100000 0
4.200000 0.100000 0
4.300000 0.100000 0
4.400000 0.100000 0
4.500000 0.100000 0
4.600000 0.100000 0
4.700000 0.100000 0
4.800000 0.100000 0
4.900000 0.100000 0
5.000000 0.100000 0
5.100000 0.100000 0
5.200000 0.100000 0
5.300000 0.100000 0
5.400000 0.100000 0
5.500000 0.100000 0
5.600000 0.100000 0
5.700000 0.100000 0
5.800000 0.100000 0
5.900000 0.100000 0
6.000000 0.100000 0
6.100000 0.100000 0
6.200000 0.100000 0
6.300000 0.100000 0
6.400000 0.100000 0
6.500000 0.100000 0
6.600000 0.100000 0
6.700000 0.100000 0
6.800000 0.100000 0
6.900000 0.100000 0
7.000000 0.100000 0
7.100000 0.100000 0
7.200000 0.100000 0
7.300000 0.100000 0
7.400000 0.100000 0
7.500000 0.100000 0
7.600000 0.100000 0
7.700000 0.100000 0
7.800000 0.100000 0
7.900000 0.100000 0
8.000000 0.100000 0
8.100000 0.100000 0
8.200000 0.100000 0
8.300000 0.100000 0
8.400000 0.100000 0
8.500000 0.100000 0
8.600000 0.100000 0
8.700000 0.100000 0
8.800000 0.100000 0
8.900000 0.100000 0
9.000000 0.100000 0
9.100000 0.100000 0
9.200000 0.100000 0
9.300000 0.100000 0
9.400000 0.100000 0
9.500000 0.100000 0
9.600000 0.100000 0
9.700000 0.100000 0
9.800000 0.100000 0
9.900000 0.100000 0
10.000000 0.100000 0
0.000000 0.200000 0
0.100000 0.200000 0
0.200000 0.200000 0
0.300000 0.200000 0
0.400000 0.200000 0
0.500000 0.200000 0
0.600000 0.200000 0
0.700000 0.200000 0
0.800000 0.200000 0
0.900000 0.200000 0
1.000000 0.200000 0
1.100000 0.200000 0
1.200000 0.200000 0
1.300000 0.200000 0
1.400000 0.200000 0
1.500000 0.200000 0
1.600000 0.200000 0
1.700000 0.200000 0
1.800000 0.200000 0
1.900000 0.200000 0
2.000000 0.200000 0
2.100000 0.200000 0
2.200000 0.200000 0
2.300000 0.200000 0
2.400000 0.200000 0
2.500000 0.200000 0
2.600000 0.200000 0
2.700000 0.200000 0
2.800000 0.200000 0
2.900000 0.200000 0
3.000000 0.200000 0
3.100000 0.200000 0
3.200000 0.200000 0
3.300000 0.200000 0
3.400000 0.200000 0
3.500000 0.200000 0
3.600000 0.200000 0
3.700000 0.200000 0
3.800000 0.200000 0
3.900000 0.200000 0
4.000000 0.200000 0
4.100000 0.200000 0
4.200000 0.200000 0
4.300000 0.200000 0
4.400000 0.200000 0
4.500000 0.200000 0
4.600000 0.200000 0
4.700000 0.200000 0
4.800000 0.200000 0
4.900000 0.200000 0
5.000000 0.200000 0
5.100000 0.200000 0
5.200000 0.200000 0
5.300000 0.200000 0
5.400000 0.200000 0
5.500000 0.200000 0
5.600000 0.200000 0
5.700000 0.200000 0
5.800000 0.200000 0
5.900000 0.200000 0
6.000000 0.200000 0
6.100000 0.200000 0
6.200000 0.200000 0
6.300000 0.200000 0
6.400000 0.200000 0
6.500000 0.200000 0
6.600000 0.200000 0
6.700000 0.200000 0
6.800000 0.200000 0
6.900000 0.200000 0
7.000000 0.200000 0
7.100000 0.200000 0
7.200000 0.200000 0
7.300000 0.200000 0
7.400000 0.200000 0
7.500000 0.200000 0
7.600000 0.200000 0
7.700000 0.200000 0
7.800000 0.200000 0
7.900000 0.200000 0
8.000000 0.200000 0
8.100000 0.200000 0
8.200000 0.200000 0
8.300000 0.200000 0
8.400000 0.200000 0
8.500000 0.200000 0
8.600000 0.200000 0
8.700000 0.200000 0
8.800000 0.200000 0
8.900000 0.200000 0
9.000000 0.200000 0
9.100000 0.200000 0
9.200000 0.200000 0
9.300000 0.200000 0
9.400000 0.200000 0
9.500000 0.200000 0
9.600000 0.200000 0
9.700000 0.200000 0
9.800000 0.200000 0
9.900000 0.200000 0
10.000000 0.200000 0
0.000000 0.300000 0
0.100000 0.300000 0
0.200000 0.300000 0
0.300000 0.300000 0
0.400000 0.300000 0
0.500000 0.300000 0
0.600000 0.300000 0
0.700000 0.300000 0
0.800000 0.300000 0
0.900000 0.300000 0
1.000000 0.300000 0
1.100000 0.300000 0
1.200000 0.300000 0
1.300000 0.300000 0
1.400000 0.300000 0
1.500000 0.300000 0
1.600000 0.300000 0
1.700000 0.300000 0
1.800000 0.300000 0
1.900000 0.300000 0
2.000000 0.300000 0
2.100000 0.300000 0
2.200000 0.300000 0
2.300000 0.300000 0
2.400000 0.300000 0
2.500000 0.300000 0
2.600000 0.300000 0
2.700000 0.300000 0
2.800000 0.300000 0
2.900000 0.300000 0
3.000000 0.300000 0
3.100000 0.300000 0
3.200000 0.300000 0
3.300000 0.300000 0
3.400000 0.300000 0
3.500000 0.300000 0
3.600000 0.300000 0
3.700000 0.300000 0
3.800000 0.300000 0
3.900000 0.300000 0
4.000000 0.300000 0
4.100000 0.300000 0
4.200000 0.300000 0
4.300000 0.300000 0
4.400000 0.300000 0
4.500000 0.300000 0
4.600000 0.300000 0
4.700000 0.300000 0
4.800000 0.300000 0
4.900000 0.300000 0
5.000000 0.300000 0
5.100000 0.300000 0
5.200000 0.300000 0
5.300000 0.300000 0
5.400000 0.300000 0
5.500000 0.300000 0
5.600000 0.300000 0
5.700000 0.300000 0
5.800000 0.300000 0
5.900000 0.300000 0
6.000000 0.300000 0
6.100000 0.300000 0
6.200000 0.300000 0
6.300000 0.300000 0
6.400000 0.300000 0
6.500000 0.300000 0
6.600000 0.300000 0
6.700000 0.300000 0
6.800000 0.300000 0
6.900000 0.300000 0
7.000000 0.300000 0
7.100000 0.300000 0
7.200000 0.300000 0
7.300000 0.300000 0
7.400000 0.300000 0
7.500000 0.300000 0
7.600000 0.300000 0
7.700000 0.300000 0
7.800000 0.300000 0
7.900000 0.300000 0
8.000000 0.300000 0
8.100000 0.300000 0
8.200000 0.300000 0
8.300000 0.300000 0
8.400000 0.300000 0
8.500000 0.300000 0
8.600000 0.300000 0
8.700000 0.300000 0
8.800000 0.300000 0
8.900000 0.300000 0
9.000000 0.300000 0
9.100000 0.300000 0
9.200000 0.300000 0
9.300000 0.300000 0
9.400000 0.300000 0
9.500000 0.300000 0
9.600000 0.300000 0
9.700000 0.300000 0
9.800000 0.300000 0
9.900000 0.300000 0
10.000000 0.300000 0
0.000000 0.400000 0
0.100000 0.400000 0
0.200000 0.400000 0
0.300000 0.400000 0
0.400000 0.400000 0
0.500000 0.400000 0
0.600000 0.400000 0
0.700000 0.400000 0
0.800000 0.400000 0
0.900000 0.400000 0
1.000000 0.400000 0
1.100000 0.400000 0
1.200000 0.400000 0
1.300000 0.400000 0
1.400000 0.400000 0
1.500000 0.400000 0
1.600000 0.400000 0
1.700000 0.400000 0
1.800000 0.400000 0
1.900000 0.400000 0
2.000000 0.400000 0
2.100000 0.400000 0
2.200000 0.400000 0
2.300000 0.400000 0
2.400000 0.400000 0
2.500000 0.400000 0
2.600000 0.400000 0
2.700000 0.400000 0
2.800000 0.400000 0
2.900000 0.400000 0
3.000000 0.400000 0
3.100000 0.400000 0
3.200000 0.400000 0
3.300000 0.400000 0
3.400000 0.400000 0
3.500000 0.400000 0
3.600000 0.400000 0
3.700000 0.400000 0
3.800000 0.400000 0
3.900000 0.400000 0
4.000000 0.400000 0
4.100000 0.400000 0
4.200000 0.400000 0
4.300000 0.400000 0
4.400000 0.400000 0
4.500000 0.400000 0
4.600000 0.400000 0
4.700000 0.400000 0
4.800000 0.400000 0
4.900000 0.400000 0
5.000000 0.400000 0
5.100000 0.400000 0
5.200000 0.400000 0
5.300000 0.400000 0
5.400000 0.400000 0
5.500000 0.400000 0
5.600000 0.400000 0
5.700000 0.400000 0
5.800000 0.400000 0
5.900000 0.400000 0
6.000000 0.400000 0
6.100000 0.400000 0
6.200000 0.400000 0
6.300000 0.400000 0
6.400000 0.400000 0
6.500000 0.400000 0
6.600000 0.400000 0
6.700000 0.400000 0
6.800000 0.400000 0
6.900000 0.400000 0
7.000000 0.400000 0
7.100000 0.400000 0
7.200000 0.400000 0
7.300000 0.400000 0
7.400000 0.400000 0
7.500000 0.400000 0
7.600000 0.400000 0
7.700000 0.400000 0
7.800000 0.400000 0
7.900000 0.400000 0
8.000000 0.400000 0
8.100000 0.400000 0
8.200000 0.400000 0
8.300000 0.400000 0
8.400000 0.400000 0
8.500000 0.400000 0
8.600000 0.400000 0
[...]
POINT_DATA 2121 

VECTORS velocity float
0.500000 0.000000 0
0.000001 0.000000 0
-0.000029 0.000000 0
-0.000100 0.000000 0
-0.000222 0.000000 0
-0.000407 0.000000 0
-0.000662 0.000000 0
-0.000993 0.000000 0
-0.001418 0.000000 0
-0.001933 0.000000 0
-0.002488 0.000000 0
-0.003007 0.000000 0
-0.003482 0.000000 0
-0.003933 0.000000 0
-0.003973 0.000000 0
-0.003250 0.000000 0
-0.001601 0.000000 0
0.000770 0.000000 0
0.003413 0.000000 0
0.005603 0.000000 0
0.007029 0.000000 0
0.007747 0.000000 0
0.007940 0.000000 0
0.007633 0.000000 0
0.006632 0.000000 0
0.005321 0.000000 0
0.006668 0.000000 0
0.006214 0.000000 0
0.002479 0.000000 0
0.001035 0.000000 0
0.001343 0.000000 0
0.001199 0.000000 0
-0.000223 0.000000 0
-0.000894 0.000000 0
-0.001101 0.000000 0
-0.001219 0.000000 0
-0.001349 0.000000 0
-0.001404 0.000000 0
-0.001387 0.000000 0
-0.001334 0.000000 0
-0.001268 0.000000 0
-0.001203 0.000000 0
-0.001142 0.000000 0
-0.001085 0.000000 0
-0.001032 0.000000 0
-0.000981 0.000000 0
-0.000932 0.000000 0
-0.000883 0.000000 0
-0.000835 0.000000 0
-0.000787 0.000000 0
-0.000743 0.000000 0
-0.000701 0.000000 0
-0.000657 0.000000 0
-0.000613 0.000000 0
-0.000578 0.000000 0
-0.000548 0.000000 0
-0.000511 0.000000 0
-0.000470 0.000000 0
-0.000442 0.000000 0
-0.000433 0.000000 0
-0.000420 0.000000 0
-0.000386 0.000000 0
-0.000340 0.000000 0
-0.000314 0.000000 0
-0.000325 0.000000 0
-0.000354 0.000000 0
-0.000346 0.000000 0
-0.000325 0.000000 0
-0.000306 0.000000 0
-0.000290 0.000000 0
-0.000277 0.000000 0
-0.000267 0.000000 0
-0.000260 0.000000 0
-0.000254 0.000000 0
-0.000249 0.000000 0
-0.000246 0.000000 0
-0.000243 0.000000 0
-0.000241 0.000000 0
-0.000239 0.000000 0
-0.000238 0.000000 0
-0.000236 0.000000 0
-0.000236 0.000000 0
-0.000235 0.000000 0
-0.000234 0.000000 0
-0.000233 0.000000 0
-0.000233 0.000000 0
-0.000232 0.000000 0
-0.000232 0.000000 0
-0.000232 0.000000 0
-0.000231 0.000000 0
-0.000231 0.000000 0
-0.000231 0.000000 0
-0.000230 0.000000 0
-0.000230 0.000000 0
-0.000230 0.000000 0
-0.000229 0.000000 0
-0.000229 0.000000 0
-0.000229 0.000000 0
-0.000228 0.000000 0
-0.000228 0.000000 0
-0.000227 0.000000 0
1.000000 -0.002667 0
1.005875 -0.008542 0
1.018321 -0.015393 0
1.038192 -0.023003 0
1.066338 -0.030973 0
1.103061 -0.038457 0
1.147477 -0.044179 0
1.197125 -0.046659 0
1.246728 -0.045653 0
1.292785 -0.042697 0
1.334603 -0.039566 0
1.372941 -0.037586 0
1.409667 -0.038003 0
1.448447 -0.041126 0
1.493077 -0.043767 0
1.541358 -0.040218 0
1.583143 -0.026511 0
1.604823 -0.003075 0
1.597224 0.025204 0
1.559063 0.050809 0
1.496235 0.069286 0
1.418271 0.080493 0
1.333097 0.085079 0
1.247873 0.083087 0
1.167532 0.073693 0
1.093298 0.065031 0
1.030123 0.067980 0
0.990139 0.065887 0
0.944951 0.042216 0
0.896700 0.021993 0
0.857904 0.018521 0
0.828029 0.014613 0
0.817128 0.004881 0
0.821385 -0.003432 0
0.828124 -0.007027 0
0.835331 -0.008571 0
0.844060 -0.009519 0
0.854049 -0.009918 0
0.864179 -0.009752 0
0.873813 -0.009250 0
0.882772 -0.008631 0
0.891081 -0.008010 0
0.898818 -0.007427 0
0.906051 -0.006896 0
0.912823 -0.006412 0
0.919156 -0.005958 0
0.925069 -0.005524 0
0.930572 -0.005111 0
0.935667 -0.004706 0
0.940364 -0.004311 0
0.944680 -0.003950 0
0.948616 -0.003616 0
0.952175 -0.003261 0
0.955398 -0.002909 0
0.958325 -0.002634 0
0.960943 -0.002405 0
0.963240 -0.002125 0
0.965257 -0.001803 0
0.967097 -0.001580 0
0.968791 -0.001508 0
0.970272 -0.001432 0
0.971466 -0.001179 0
0.972412 -0.000813 0
0.973270 -0.000571 0
0.974168 -0.000619 0
0.975118 -0.000838 0
0.975939 -0.000899 0
0.976638 -0.000767 0
0.977225 -0.000618 0
0.977715 -0.000491 0
0.978123 -0.000390 0
0.978461 -0.000310 0
0.978742 -0.000247 0
0.978976 -0.000198 0
0.979171 -0.000160 0
0.979333 -0.000129 0
0.979469 -0.000105 0
0.979583 -0.000086 0
0.979678 -0.000070 0
0.979759 -0.000058 0
0.979827 -0.000048 0
0.979885 -0.000039 0
0.979934 -0.000033 0
0.979976 -0.000027 0
0.980011 -0.000022 0
0.980042 -0.000018 0
0.980069 -0.000015 0
0.980093 -0.000013 0
0.980114 -0.000011 0
0.980133 -0.000010 0
0.980151 -0.000009 0
0.980168 -0.000009 0
0.980187 -0.000011 0
0.980207 -0.000013 0
0.980231 -0.000020 0
0.980261 -0.000026 0
0.980301 -0.000050 0
0.980361 -0.000072 0
0.980448 -0.000184 0
0.980596 -0.000373 0
0.980805 -0.000448 0
1.000000 -0.005886 0
1.005974 -0.018335 0
1.018585 -0.032324 0
1.038910 -0.048022 0
1.068546 -0.064872 0
1.108632 -0.081141 0
1.158860 -0.094065 0
1.218062 -0.099249 0
1.274994 -0.095657 0
1.324381 -0.087871 0
1.366927 -0.080151 0
1.403868 -0.075057 0
1.437233 -0.075499 0
1.472788 -0.083403 0
1.518405 -0.092904 0
1.577240 -0.090058 0
1.635887 -0.063458 0
1.671973 -0.014074 0
1.670548 0.045768 0
1.630918 0.100996 0
1.561932 0.140799 0
1.476103 0.163145 0
1.381811 0.170405 0
1.285013 0.165572 0
1.191260 0.154581 0
1.105552 0.137416 0
1.033953 0.103166 0
0.966358 0.085178 0
0.910844 0.093446 0
0.916312 0.087054 0
0.941897 0.068676 0
0.942104 0.040782 0
0.918829 0.006650 0
0.886270 -0.010991 0
0.863629 -0.013940 0
0.856069 -0.015931 0
0.861530 -0.018714 0
0.872712 -0.020115 0
0.884056 -0.019761 0
0.894182 -0.018589 0
0.903228 -0.017265 0
0.911543 -0.016044 0
0.919350 -0.014969 0
0.926752 -0.014003 0
0.933775 -0.013103 0
0.940415 -0.012246 0
0.946663 -0.011416 0
0.952502 -0.010598 0
0.957919 -0.009792 0
0.962921 -0.009014 0
0.967513 -0.008252 0
0.971683 -0.007495 0
0.975450 -0.006783 0
0.978871 -0.006151 0
0.981956 -0.005545 0
0.984671 -0.004916 0
0.987049 -0.004314 0
0.989213 -0.003857 0
0.991215 -0.003534 0
0.992954 -0.003175 0
0.994345 -0.002675 0
0.995470 -0.002140 0
0.996555 -0.001803 0
0.997732 -0.001754 0
0.998933 -0.001846 0
0.999883 -0.001770 0
1.000553 -0.001519 0
1.001110 -0.001284 0
1.001601 -0.001074 0
1.002034 -0.000895 0
1.002414 -0.000743 0
1.002744 -0.000616 0
1.003028 -0.000511 0
1.003272 -0.000424 0
1.003481 -0.000353 0
1.003659 -0.000294 0
1.003811 -0.000245 0
1.003939 -0.000204 0
1.004048 -0.000171 0
1.004141 -0.000143 0
1.004219 -0.000120 0
1.004286 -0.000100 0
1.004343 -0.000084 0
1.004392 -0.000071 0
1.004434 -0.000060 0
1.004470 -0.000051 0
1.004501 -0.000043 0
1.004528 -0.000037 0
1.004552 -0.000032 0
1.004574 -0.000029 0
1.004594 -0.000028 0
1.004614 -0.000028 0
1.004633 -0.000031 0
1.004653 -0.000036 0
1.004677 -0.000046 0
1.004702 -0.000062 0
1.004739 -0.000092 0
1.004771 -0.000138 0
1.004832 -0.000226 0
1.004819 -0.000349 0
1.004776 -0.000410 0
1.000000 -0.008649 0
1.004637 -0.027137 0
1.015667 -0.048332 0
1.034363 -0.072965 0
1.064153 -0.100697 0
1.107588 -0.128773 0
1.165470 -0.153609 0
1.246522 -0.162792 0
1.317110 -0.151971 0
1.369424 -0.134629 0
1.410093 -0.119052 0
1.440750 -0.107889 0
1.463772 -0.106920 0
1.487716 -0.122296 0
1.524747 -0.148217 0
1.597237 -0.157698 0
1.685318 -0.121242 0
1.749571 -0.037733 0
1.763663 0.066261 0
1.719816 0.159427 0
1.631730 0.224104 0
1.526513 0.260617 0
1.423163 0.276172 0
1.324176 0.273640 0
1.230622 0.253156 0
1.149350 0.222341 0
1.088487 0.207177 0
1.031326 0.188998 0
0.995940 0.092265 0
0.956405 -0.009057 0
0.909359 -0.007269 0
0.887550 0.037683 0
0.870039 0.060718 0
0.848755 0.051770 0
0.835531 0.023176 0
0.835090 -0.006470 0
0.850289 -0.026161 0
0.868923 -0.032443 0
0.882610 -0.031220 0
0.892826 -0.028421 0
0.901509 -0.025991 0
0.909645 -0.024130 0
0.917544 -0.022635 0
0.925225 -0.021320 0
0.932619 -0.020075 0
0.939663 -0.018845 0
0.946300 -0.017611 0
0.952479 -0.016367 0
0.958185 -0.015125 0
0.963422 -0.013905 0
0.968179 -0.012712 0
0.972469 -0.011553 0
0.976344 -0.010449 0
0.979826 -0.009414 0
0.982891 -0.008434 0
0.985574 -0.007499 0
0.987985 -0.006666 0
0.990188 -0.005969 0
0.992109 -0.005322 0
0.993678 -0.004638 0
0.994966 -0.003947 0
0.996169 -0.003388 0
0.997446 -0.003074 0
0.998703 -0.002948 0
0.999726 -0.002769 0
1.000437 -0.002458 0
1.001053 -0.002125 0
1.001592 -0.001814 0
1.002064 -0.001541 0
1.002477 -0.001303 0
1.002836 -0.001098 0
1.003147 -0.000923 0
1.003416 -0.000774 0
1.003646 -0.000649 0
1.003843 -0.000544 0
1.004011 -0.000456 0
1.004154 -0.000383 0
1.004276 -0.000321 0
1.004380 -0.000270 0
1.004468 -0.000227 0
1.004542 -0.000191 0
1.004606 -0.000161 0
1.004661 -0.000136 0
1.004707 -0.000114 0
1.004747 -0.000097 0
1.004782 -0.000082 0
1.004811 -0.000070 0
1.004837 -0.000061 0
1.004860 -0.000053 0
1.004880 -0.000048 0
1.004899 -0.000045 0
1.004916 -0.000045 0
1.004932 -0.000047 0
1.004949 -0.000054 0
1.004966 -0.000066 0
1.004984 -0.000085 0
1.005003 -0.000115 0
1.005019 -0.000161 0
1.005031 -0.000228 0
1.005010 -0.000314 0
1.004961 -0.000360 0
1.000000 -0.010532 0
1.001615 -0.034014 0
1.010038 -0.062054 0
1.024071 -0.096511 0
1.052515 -0.138099 0
1.097685 -0.182461 0
1.162903 -0.233000 0
1.299114 -0.250889 0
1.388744 -0.218559 0
1.434387 -0.180853 0
1.463816 -0.151475 0
1.476523 -0.128734 0
1.472781 -0.122463 0
1.470512 -0.144376 0
1.469648 -0.202422 0
1.543094 -0.250627 0
1.667321 -0.215790 0
1.771371 -0.092418 0
1.823534 0.075525 0
1.807158 0.232932 0
1.721570 0.334104 0
1.587653 0.371715 0
1.440010 0.372745 0
1.315255 0.358115 0
1.214763 0.329409 0
1.138598 0.279554 0
1.077988 0.221193 0
1.033280 0.177728 0
1.002395 0.168370 0
0.926858 0.173637 0
0.861770 0.137534 0
0.850051 0.080105 0
0.870193 0.045448 0
0.901962 0.023519 0
0.926087 -0.000274 0
0.933429 -0.030686 0
0.919790 -0.052544 0
0.902649 -0.052435 0
0.894714 -0.043662 0
0.894734 -0.037486 0
0.899503 -0.034082 0
0.906664 -0.032079 0
0.914822 -0.030548 0
0.923194 -0.029077 0
0.931362 -0.027541 0
0.939122 -0.025926 0
0.946363 -0.024232 0
0.953038 -0.022483 0
0.959142 -0.020734 0
0.964655 -0.019007 0
0.969575 -0.017300 0
0.973967 -0.015660 0
0.977899 -0.014139 0
0.981358 -0.012698 0
0.984346 -0.011294 0
0.986971 -0.010010 0
0.989349 -0.008929 0
0.991457 -0.007981 0
0.993193 -0.007023 0
0.994571 -0.006032 0
0.995814 -0.005166 0
0.997111 -0.004620 0
0.998431 -0.004337 0
0.999532 -0.004033 0
1.000333 -0.003580 0
1.000976 -0.003097 0
1.001521 -0.002672 0
1.001997 -0.002293 0
1.002411 -0.001958 0
1.002771 -0.001665 0
1.003083 -0.001412 0
1.003354 -0.001194 0
1.003588 -0.001008 0
1.003789 -0.000850 0
1.003962 -0.000716 0
1.004110 -0.000603 0
1.004237 -0.000507 0
1.004345 -0.000427 0
1.004437 -0.000360 0
1.004516 -0.000303 0
1.004584 -0.000256 0
1.004641 -0.000216 0
1.004690 -0.000183 0
1.004733 -0.000155 0
1.004769 -0.000131 0
1.004800 -0.000112 0
1.004827 -0.000096 0
1.004850 -0.000083 0
1.004870 -0.000072 0
1.004888 -0.000065 0
1.004904 -0.000060 0
1.004918 -0.000059 0
1.004931 -0.000060 0
1.004943 -0.000066 0
1.004954 -0.000078 0
1.004964 -0.000096 0
1.004971 -0.000124 0
1.004972 -0.000162 0
1.004964 -0.000214 0
1.004937 -0.000276 0
1.004888 -0.000310 0
1.000000 -0.010274 0
0.999335 -0.037188 0
1.005550 -0.070792 0
1.005251 -0.115447 0
1.029971 -0.174316 0
1.068334 -0.239163 0
1.138467 -0.355038 0
1.390835 -0.388634 0
1.465520 -0.287245 0
1.460043 -0.209700 0
1.456935 -0.161186 0
1.437103 -0.116852 0
1.375686 -0.100908 0
1.331260 -0.119162 0
1.212707 -0.220798 0
1.265955 -0.355370 0
1.421072 -0.349517 0
1.570968 -0.193945 0
1.674511 0.030476 0
1.723663 0.261393 0
1.707499 0.443611 0
1.628251 0.542179 0
1.499747 0.548573 0
1.338193 0.498890 0
1.178699 0.429816 0
1.035311 0.359118 0
0.889958 0.312498 0
0.840282 0.264594 0
0.837342 0.198690 0
0.853391 0.131571 0
0.873787 0.069541 0
0.878644 0.029262 0
0.882205 0.008809 0
0.892388 -0.004121 0
0.903800 -0.008288 0
0.907624 -0.000171 0
0.895910 0.004621 0
0.882368 -0.007365 0
0.878186 -0.023304 0
0.881677 -0.033209 0
0.889536 -0.037919 0
0.899383 -0.039448 0
0.909823 -0.039165 0
0.920096 -0.037860 0
0.929786 -0.036002 0
0.938697 -0.033845 0
0.946822 -0.031526 0
0.954201 -0.029145 0
0.960794 -0.026742 0
0.966588 -0.024338 0
0.971700 -0.022024 0
0.976229 -0.019877 0
0.980142 -0.017840 0
0.983450 -0.015862 0
0.986341 -0.014047 0
0.988961 -0.012502 0
0.991231 -0.011153 0
0.993040 -0.009812 0
0.994462 -0.008435 0
0.995768 -0.007259 0
0.997190 -0.006486 0
0.998557 -0.006005 0
0.999664 -0.005495 0
1.000465 -0.004849 0
1.001080 -0.004212 0
1.001616 -0.003646 0
1.002077 -0.003145 0
1.002474 -0.002702 0
1.002818 -0.002313 0
1.003117 -0.001974 0
1.003375 -0.001680 0
1.003600 -0.001426 0
1.003794 -0.001208 0
1.003961 -0.001022 0
1.004105 -0.000863 0
1.004230 -0.000729 0
1.004337 -0.000615 0
1.004428 -0.000519 0
1.004507 -0.000439 0
1.004575 -0.000370 0
1.004633 -0.000313 0
1.004682 -0.000265 0
1.004725 -0.000224 0
1.004762 -0.000190 0
1.004793 -0.000161 0
1.004820 -0.000137 0
1.004843 -0.000117 0
1.004863 -0.000101 0
1.004880 -0.000088 0
1.004895 -0.000079 0
1.004908 -0.000072 0
1.004919 -0.000069 0
1.004928 -0.000069 0
1.004936 -0.000073 0
1.004941 -0.000083 0
1.004943 -0.000098 0
1.004941 -0.000121 0
1.004933 -0.000151 0
1.004914 -0.000190 0
1.004882 -0.000235 0
1.004833 -0.000259 0
1.000000 -0.009878 0
0.997725 -0.039578 0
1.001625 -0.067977 0
0.987351 -0.120937 0
1.001344 -0.201186 0
1.007134 -0.290960 0
1.085763 -0.555503 0
1.417720 -0.577943 0
1.332137 -0.287767 0
1.214905 -0.172267 0
1.118004 -0.128532 0
1.128765 -0.047484 0
1.025754 -0.016619 0
0.703797 0.018604 0
0.573923 -0.137116 0
0.688852 -0.458991 0
0.870788 -0.520803 0
1.131935 -0.345856 0
1.277445 -0.077169 0
1.376231 0.199945 0
1.418072 0.429518 0
1.425323 0.579470 0
1.400370 0.662806 0
1.325516 0.679165 0
1.237944 0.632293 0
1.093779 0.568297 0
0.934495 0.416225 0
0.847950 0.230347 0
0.826454 0.155264 0
0.808480 0.137195 0
0.790015 0.112283 0
0.773789 0.071690 0
0.764539 0.031707 0
0.759064 0.001926 0
0.757957 -0.015508 0
0.766057 -0.022795 0
0.788838 -0.027286 0
0.815289 -0.034709 0
0.837408 -0.042969 0
0.856336 -0.048834 0
0.873439 -0.051787 0
0.889234 -0.052365 0
0.903770 -0.051260 0
0.916983 -0.049038 0
0.928806 -0.046141 0
0.939249 -0.042962 0
0.948422 -0.039735 0
0.956475 -0.036454 0
0.963535 -0.033121 0
0.969686 -0.029913 0
0.974962 -0.026941 0
0.979376 -0.024101 0
0.983082 -0.021359 0
0.986349 -0.018897 0
0.989225 -0.016805 0
0.991543 -0.014900 0
0.993286 -0.013007 0
0.994812 -0.011212 0
0.996312 -0.009750 0
0.997766 -0.008759 0
0.999140 -0.007955 0
1.000181 -0.007093 0
1.000899 -0.006244 0
1.001462 -0.005449 0
1.001942 -0.004730 0
1.002356 -0.004093 0
1.002710 -0.003529 0
1.003015 -0.003033 0
1.003279 -0.002599 0
1.003508 -0.002221 0
1.003706 -0.001893 0
1.003878 -0.001611 0
1.004028 -0.001368 0
1.004157 -0.001160 0
1.004270 -0.000982 0
1.004368 -0.000832 0
1.004452 -0.000704 0
1.004525 -0.000595 0
1.004589 -0.000504 0
1.004643 -0.000426 0
1.004690 -0.000361 0
1.004731 -0.000306 0
1.004766 -0.000259 0
1.004796 -0.000220 0
1.004822 -0.000187 0
1.004844 -0.000159 0
1.004863 -0.000136 0
1.004879 -0.000117 0
1.004893 -0.000101 0
1.004905 -0.000089 0
1.004914 -0.000081 0
1.004922 -0.000075 0
1.004927 -0.000074 0
1.004930 -0.000076 0
1.004931 -0.000082 0
1.004927 -0.000093 0
1.004918 -0.000110 0
1.004903 -0.000132 0
1.004878 -0.000160 0
1.004843 -0.000192 0
1.004794 -0.000209 0
1.000000 -0.008012 0
0.999440 -0.038831 0
0.988551 -0.060425 0
0.980326 -0.115171 0
0.964436 -0.194104 0
0.912516 -0.323587 0
1.005841 -0.765629 0
0.693610 -0.550581 0
-0.000301 0.000000 0
0.001093 0.000000 0
0.406464 -0.079479 0
0.366518 -0.024600 0
0.332481 0.324062 0
0.157852 0.332670 0
0.366538 -0.205852 0
0.303548 -0.652233 0
0.295432 -0.792598 0
0.480452 -0.600601 0
0.632017 -0.213819 0
0.806959 0.120767 0
0.952204 0.394520 0
1.078471 0.559883 0
1.153190 0.648382 0
1.166557 0.661318 0
1.103445 0.661555 0
1.053683 0.662570 0
1.042274 0.558329 0
0.939484 0.372638 0
0.820453 0.238163 0
0.763997 0.168013 0
0.754745 0.104234 0
0.750479 0.054740 0
0.738928 0.023537 0
0.727235 0.002463 0
0.723660 -0.015279 0
0.732243 -0.031049 0
0.752858 -0.044609 0
0.779970 -0.055934 0
0.808095 -0.064349 0
0.834815 -0.069238 0
0.859160 -0.070816 0
0.880785 -0.069778 0
0.899661 -0.066913 0
0.915981 -0.062894 0
0.930047 -0.058266 0
0.942104 -0.053461 0
0.952265 -0.048752 0
0.960752 -0.044257 0
0.967976 -0.039952 0
0.974269 -0.035764 0
0.979616 -0.031714 0
0.983867 -0.027998 0
0.987199 -0.024813 0
0.990075 -0.022004 0
0.992586 -0.019240 0
0.994550 -0.016563 0
0.996045 -0.014422 0
0.997636 -0.012837 0
0.999067 -0.011390 0
1.000246 -0.010087 0
1.001080 -0.008899 0
1.001690 -0.007764 0
1.002166 -0.006775 0
1.002554 -0.005891 0
1.002880 -0.005105 0
1.003156 -0.004412 0
1.003392 -0.003804 0
1.003595 -0.003270 0
1.003771 -0.002804 0
1.003924 -0.002399 0
1.004058 -0.002048 0
1.004175 -0.001746 0
1.004278 -0.001485 0
1.004368 -0.001262 0
1.004448 -0.001071 0
1.004517 -0.000909 0
1.004578 -0.000771 0
1.004632 -0.000653 0
1.004678 -0.000554 0
1.004719 -0.000470 0
1.004754 -0.000398 0
1.004785 -0.000338 0
1.004811 -0.000286 0
1.004834 -0.000243 0
1.004854 -0.000206 0
1.004871 -0.000176 0
1.004886 -0.000150 0
1.004898 -0.000128 0
1.004908 -0.000111 0
1.004916 -0.000097 0
1.004923 -0.000086 0
1.004927 -0.000078 0
1.004929 -0.000074 0
1.004928 -0.000073 0
1.004924 -0.000076 0
1.004916 -0.000083 0
1.004902 -0.000093 0
1.004882 -0.000108 0
1.004854 -0.000126 0
1.004816 -0.000147 0
1.004767 -0.000158 0
1.000000 -0.009333 0
1.007915 -0.028148 0
0.969143 -0.048871 0
0.984063 -0.096830 0
0.902402 -0.133383 0
0.871763 -0.332372 0
0.693139 -0.421033 0
0.000000 0.008183 0
-0.583466 0.163452 0
-0.489180 0.000000 0
0.000000 0.000000 0
-0.070267 0.035712 0
-0.019147 0.192048 0
0.175862 -0.015452 0
0.291233 -0.282811 0
0.061500 -0.387884 0
-0.050618 -0.697706 0
-0.249655 -0.682440 0
-0.025428 -0.403674 0
0.219022 -0.120241 0
0.502919 0.158008 0
0.730163 0.378485 0
0.852045 0.574722 0
0.904086 0.728912 0
0.929757 0.745169 0
0.986026 0.629471 0
0.980012 0.530427 0
0.904762 0.452170 0
0.835552 0.330754 0
0.802181 0.202906 0
0.753358 0.125804 0
0.695019 0.087510 0
0.652796 0.054954 0
0.638149 0.017197 0
0.648467 -0.020514 0
0.675477 -0.051990 0
0.711409 -0.075012 0
0.750381 -0.089945 0
0.788601 -0.097812 0
0.823823 -0.099898 0
0.854778 -0.097755 0
0.880946 -0.092864 0
0.902619 -0.086454 0
0.920645 -0.079422 0
0.935998 -0.072263 0
0.949158 -0.065179 0
0.959889 -0.058383 0
0.968160 -0.052165 0
0.974852 -0.046637 0
0.980852 -0.041553 0
0.986061 -0.036539 0
0.989924 -0.031683 0
0.992551 -0.027567 0
0.994976 -0.024284 0
0.997017 -0.021280 0
0.998643 -0.018358 0
1.000048 -0.016092 0
1.001150 -0.014233 0
1.001924 -0.012360 0
1.002519 -0.010772 0
1.002905 -0.009399 0
1.003226 -0.008179 0
1.003473 -0.007106 0
1.003671 -0.006162 0
1.003833 -0.005332 0
1.003968 -0.004603 0
1.004083 -0.003967 0
1.004182 -0.003411 0
1.004269 -0.002927 0
1.004346 -0.002506 0
1.004416 -0.002143 0
1.004478 -0.001829 0
1.004535 -0.001559 0
1.004586 -0.001328 0
1.004632 -0.001129 0
1.004674 -0.000960 0
1.004711 -0.000816 0
1.004745 -0.000693 0
1.004774 -0.000589 0
1.004800 -0.000500 0
1.004823 -0.000424 0
1.004843 -0.000360 0
1.004861 -0.000306 0
1.004876 -0.000259 0
1.004889 -0.000220 0
1.004901 -0.000187 0
1.004910 -0.000159 0
1.004918 -0.000136 0
1.004925 -0.000117 0
1.004930 -0.000101 0
1.004933 -0.000088 0
1.004934 -0.000078 0
1.004933 -0.000071 0
1.004929 -0.000067 0
1.004922 -0.000066 0
1.004910 -0.000068 0
1.004893 -0.000073 0
1.004870 -0.000080 0
1.004839 -0.000090 0
1.004799 -0.000101 0
1.004750 -0.000107 0
1.000000 -0.015943 0
0.986300 -0.007994 0
0.973091 -0.036583 0
0.944460 -0.048439 0
0.875674 -0.081812 0
0.846539 -0.114333 0
0.492920 0.024400 0
0.377397 0.060828 0
0.000000 0.000000 0
0.000000 0.000000 0
0.000000 0.000000 0
0.000000 0.000000 0
0.031952 0.074174 0
0.172075 0.022289 0
-0.113831 -0.091489 0
-0.190532 -0.310382 0
-0.499444 -0.481444 0
-0.696060 -0.625791 0
-0.382277 -0.682496 0
-0.251453 -0.407579 0
0.105406 -0.116620 0
0.397776 0.210759 0
0.596052 0.474461 0
0.766655 0.583608 0
0.906798 0.579617 0
0.910640 0.612317 0
0.841014 0.639596 0
0.831850 0.517100 0
0.829970 0.340747 0
0.746273 0.250210 0
0.637077 0.211399 0
0.573029 0.155305 0
0.557269 0.080411 0
0.578923 0.006795 0
0.622870 -0.052605 0
0.675483 -0.093989 0
0.727752 -0.119511 0
0.774855 -0.133124 0
0.815764 -0.137789 0
0.850831 -0.135413 0
0.880294 -0.127937 0
0.903735 -0.117618 0
0.922026 -0.106609 0
0.937193 -0.096272 0
0.950662 -0.086779 0
0.962738 -0.077351 0
0.972611 -0.067754 0
0.979765 -0.059220 0