# vtk DataFile Version 2.0
generated by CFD-lab course output (written by Tobias Neckel) 
ASCII

DATASET STRUCTURED_GRID
DIMENSIONS  21 21 1 
POINTS 441 float

0.000000 0.000000 0
0.100000 0.000000 0
0.200000 0.000000 0
0.300000 0.000000 0
0.400000 0.000000 0
0.500000 0.000000 0
0.600000 0.000000 0
0.700000 0.000000 0
0.800000 0.000000 0
0.900000 0.000000 0
1.000000 0.000000 0
1.100000 0.000000 0
1.200000 0.000000 0
1.300000 0.000000 0
1.400000 0.000000 0
1.500000 0.000000 0
1.600000 0.000000 0
1.700000 0.000000 0
1.800000 0.000000 0
1.900000 0.000000 0
2.000000 0.000000 0
0.000000 0.100000 0
0.100000 0.100000 0
0.200000 0.100000 0
0.300000 0.100000 0
0.400000 0.100000 0
0.500000 0.100000 0
0.600000 0.100000 0
0.700000 0.100000 0
0.800000 0.100000 0
0.900000 0.100000 0
1.000000 0.100000 0
1.100000 0.100000 0
1.200000 0.100000 0
1.300000 0.100000 0
1.400000 0.100000 0
1.500000 0.100000 0
1.600000 0.100000 0
1.700000 0.100000 0
1.800000 0.100000 0
1.900000 0.100000 0
2.000000 0.100000 0
0.000000 0.200000 0
0.100000 0.200000 0
0.200000 0.200000 0
0.300000 0.200000 0
0.400000 0.200000 0
0.500000 0.200000 0
0.600000 0.200000 0
0.700000 0.200000 0
0.800000 0.200000 0
0.900000 0.200000 0
1.000000 0.200000 0
1.100000 0.200000 0
1.200000 0.200000 0
1.300000 0.200000 0
1.400000 0.200000 0
1.500000 0.200000 0
1.600000 0.200000 0
1.700000 0.200000 0
1.800000 0.200000 0
1.900000 0.200000 0
2.000000 0.200000 0
0.000000 0.300000 0
0.100000 0.300000 0
0.200000 0.300000 0
0.300000 0.300000 0
0.400000 0.300000 0
0.500000 0.300000 0
0.600000 0.300000 0
0.700000 0.300000 0
0.800000 0.300000 0
0.900000 0.300000 0
1.000000 0.300000 0
1.100000 0.300000 0
1.200000 0.300000 0
1.300000 0.300000 0
1.400000 0.300000 0
1.500000 0.300000 0
1.600000 0.300000 0
1.700000 0.300000 0
1.800000 0.300000 0
1.900000 0.300000 0
2.000000 0.300000 0
0.000000 0.400000 0
0.100000 0.400000 0
0.200000 0.400000 0
0.300000 0.400000 0
0.400000 0.400000 0
0.500000 0.400000 0
0.600000 0.400000 0
0.700000 0.400000 0
0.800000 0.400000 0
0.900000 0.400000 0
1.000000 0.400000 0
1.100000 0.400000 0
1.200000 0.400000 0
1.300000 0.400000 0
1.400000 0.400000 0
1.500000 0.400000 0
1.600000 0.400000 0
1.700000 0.400000 0
1.800000 0.400000 0
1.900000 0.400000 0
2.000000 0.400000 0
0.000000 0.500000 0
0.100000 0.500000 0
0.200000 0.500000 0
0.300000 0.500000 0
0.400000 0.500000 0
0.500000 0.500000 0
0.600000 0.500000 0
0.700000 0.500000 0
0.800000 0.500000 0
0.900000 0.500000 0
1.000000 0.500000 0
1.100000 0.500000 0
1.200000 0.500000 0
1.300000 0.500000 0
1.400000 0.500000 0
1.500000 0.500000 0
1.600000 0.500000 0
1.700000 0.500000 0
1.800000 0.500000 0
1.900000 0.500000 0
2.000000 0.500000 0
0.000000 0.600000 0
0.100000 0.600000 0
0.200000 0.600000 0
0.300000 0.600000 0
0.400000 0.600000 0
0.500000 0.600000 0
0.600000 0.600000 0
0.700000 0.600000 0
0.800000 0.600000 0
0.900000 0.600000 0
1.000000 0.600000 0
1.100000 0.600000 0
1.200000 0.600000 0
1.300000 0.600000 0
1.400000 0.600000 0
1.500000 0.600000 0
1.600000 0.600000 0
1.700000 0.600000 0
1.800000 0.600000 0
1.900000 0.600000 0
2.000000 0.600000 0
0.000000 0.700000 0
0.100000 0.700000 0
0.200000 0.700000 0
0.300000 0.700000 0
0.400000 0.700000 0
0.500000 0.700000 0
0.600000 0.700000 0
0.700000 0.700000 0
0.800000 0.700000 0
0.900000 0.700000 0
1.000000 0.700000 0
1.100000 0.700000 0
1.200000 0.700000 0
1.300000 0.700000 0
1.400000 0.700000 0
1.500000 0.700000 0
1.600000 0.700000 0
1.700000 0.700000 0
1.800000 0.700000 0
1.900000 0.700000 0
2.000000 0.700000 0
0.000000 0.800000 0
0.100000 0.800000 0
0.200000 0.800000 0
0.300000 0.800000 0
0.400000 0.800000 0
0.500000 0.800000 0
0.600000 0.800000 0
0.700000 0.800000 0
0.800000 0.800000 0
0.900000 0.800000 0
1.000000 0.800000 0
1.100000 0.800000 0
1.200000 0.800000 0
1.300000 0.800000 0
1.400000 0.800000 0
1.500000 0.800000 0
1.600000 0.800000 0
1.700000 0.800000 0
1.800000 0.800000 0
1.900000 0.800000 0
2.000000 0.800000 0
0.000000 0.900000 0
0.100000 0.900000 0
0.200000 0.900000 0
0.300000 0.900000 0
0.400000 0.900000 0
0.500000 0.900000 0
0.600000 0.900000 0
0.700000 0.900000 0
0.800000 0.900000 0
0.900000 0.900000 0
1.000000 0.900000 0
1.100000 0.900000 0
1.200000 0.900000 0
1.300000 0.900000 0
1.400000 0.900000 0
1.500000 0.900000 0
1.600000 0.900000 0
1.700000 0.900000 0
1.800000 0.900000 0
1.900000 0.900000 0
2.000000 0.900000 0
0.000000 1.000000 0
0.100000 1.000000 0
0.200000 1.000000 0
0.300000 1.000000 0
0.400000 1.000000 0
0.500000 1.000000 0
0.600000 1.000000 0
0.700000 1.000000 0
0.800000 1.000000 0
0.900000 1.000000 0
1.000000 1.000000 0
1.100000 1.000000 0
1.200000 1.000000 0
1.300000 1.000000 0
1.400000 1.000000 0
1.500000 1.000000 0
1.600000 1.000000 0
1.700000 1.000000 0
1.800000 1.000000 0
1.900000 1.000000 0
2.000000 1.000000 0
0.000000 1.100000 0
0.100000 1.100000 0
0.200000 1.100000 0
0.300000 1.100000 0
0.400000 1.100000 0
0.500000 1.100000 0
0.600000 1.100000 0
0.700000 1.100000 0
0.800000 1.100000 0
0.900000 1.100000 0
1.000000 1.100000 0
1.100000 1.100000 0
1.200000 1.100000 0
1.300000 1.100000 0
1.400000 1.100000 0
1.500000 1.100000 0
1.600000 1.100000 0
1.700000 1.100000 0
1.800000 1.100000 0
1.900000 1.100000 0
2.000000 1.100000 0
0.000000 1.200000 0
0.100000 1.200000 0
0.200000 1.200000 0
0.300000 1.200000 0
0.400000 1.200000 0
0.500000 1.200000 0
0.600000 1.200000 0
0.700000 1.200000 0
0.800000 1.200000 0
0.900000 1.200000 0
1.000000 1.200000 0
1.100000 1.200000 0
1.200000 1.200000 0
1.300000 1.200000 0
1.400000 1.200000 0
1.500000 1.200000 0
1.600000 1.200000 0
1.700000 1.200000 0
1.800000 1.200000 0
1.900000 1.200000 0
2.000000 1.200000 0
0.000000 1.300000 0
0.100000 1.300000 0
0.200000 1.300000 0
0.300000 1.300000 0
0.400000 1.300000 0
0.500000 1.300000 0
0.600000 1.300000 0
0.700000 1.300000 0
0.800000 1.300000 0
0.900000 1.300000 0
1.000000 1.300000 0
1.100000 1.300000 0
1.200000 1.300000 0
1.300000 1.300000 0
1.400000 1.300000 0
1.500000 1.300000 0
1.600000 1.300000 0
1.700000 1.300000 0
1.800000 1.300000 0
1.900000 1.300000 0
2.000000 1.300000 0
0.000000 1.400000 0
0.100000 1.400000 0
0.200000 1.400000 0
0.300000 1.400000 0
0.400000 1.400000 0
0.500000 1.400000 0
0.600000 1.400000 0
0.700000 1.400000 0
0.800000 1.400000 0
0.900000 1.400000 0
1.000000 1.400000 0
1.100000 1.400000 0
1.200000 1.400000 0
1.300000 1.400000 0
1.400000 1.400000 0
1.500000 1.400000 0
1.600000 1.400000 0
1.700000 1.400000 0
1.800000 1.400000 0
1.900000 1.400000 0
2.000000 1.400000 0
0.000000 1.500000 0
0.100000 1.500000 0
0.200000 1.500000 0
0.300000 1.500000 0
0.400000 1.500000 0
0.500000 1.500000 0
0.600000 1.500000 0
0.700000 1.500000 0
0.800000 1.500000 0
0.900000 1.500000 0
1.000000 1.500000 0
1.100000 1.500000 0
1.200000 1.500000 0
1.300000 1.500000 0
1.400000 1.500000 0
1.500000 1.500000 0
1.600000 1.500000 0
1.700000 1.500000 0
1.800000 1.500000 0
1.900000 1.500000 0
2.000000 1.500000 0
0.000000 1.600000 0
0.100000 1.600000 0
0.200000 1.600000 0
0.300000 1.600000 0
0.400000 1.600000 0
0.500000 1.600000 0
0.600000 1.600000 0
0.700000 1.600000 0
0.800000 1.600000 0
0.900000 1.600000 0
1.000000 1.600000 0
1.100000 1.600000 0
1.200000 1.600000 0
1.300000 1.600000 0
1.400000 1.600000 0
1.500000 1.600000 0
1.600000 1.600000 0
1.700000 1.600000 0
1.800000 1.600000 0
1.900000 1.600000 0
2.000000 1.600000 0
0.000000 1.700000 0
0.100000 1.700000 0
0.200000 1.700000 0
0.300000 1.700000 0
0.400000 1.700000 0
0.500000 1.700000 0
0.600000 1.700000 0
0.700000 1.700000 0
0.800000 1.700000 0
0.900000 1.700000 0
1.000000 1.700000 0
1.100000 1.700000 0
1.200000 1.700000 0
1.300000 1.700000 0
1.400000 1.700000 0
1.500000 1.700000 0
1.600000 1.700000 0
1.700000 1.700000 0
1.800000 1.700000 0
1.900000 1.700000 0
2.000000 1.700000 0
0.000000 1.800000 0
0.100000 1.800000 0
0.200000 1.800000 0
0.300000 1.800000 0
0.400000 1.800000 0
0.500000 1.800000 0
0.600000 1.800000 0
0.700000 1.800000 0
0.800000 1.800000 0
0.900000 1.800000 0
1.000000 1.800000 0
1.100000 1.800000 0
1.200000 1.800000 0
1.300000 1.800000 0
1.400000 1.800000 0
1.500000 1.800000 0
1.600000 1.800000 0
1.700000 1.800000 0
1.800000 1.800000 0
1.900000 1.800000 0
2.000000 1.800000 0
0.000000 1.900000 0
0.100000 1.900000 0
0.200000 1.900000 0
0.300000 1.900000 0
0.400000 1.900000 0
0.500000 1.900000 0
0.600000 1.900000 0
0.700000 1.900000 0
0.800000 1.900000 0
0.900000 1.900000 0
1.000000 1.900000 0
1.100000 1.900000 0
1.200000 1.900000 0
1.300000 1.900000 0
1.400000 1.900000 0
1.500000 1.900000 0
1.600000 1.900000 0
1.700000 1.900000 0
1.800000 1.900000 0
1.900000 1.900000 0
2.000000 1.900000 0
0.000000 2.000000 0
0.100000 2.000000 0
0.200000 2.000000 0
0.300000 2.000000 0
0.400000 2.000000 0
0.500000 2.000000 0
0.600000 2.000000 0
0.700000 2.000000 0
0.800000 2.000000 0
0.900000 2.000000 0
1.000000 2.000000 0
1.100000 2.000000 0
1.200000 2.000000 0
1.300000 2.000000 0
1.400000 2.000000 0
1.500000 2.000000 0
1.600000 2.000000 0
1.700000 2.000000 0
1.800000 2.000000 0
1.900000 2.000000 0
2.000000 2.000000 0
POINT_DATA 441 

VECTORS velocity float
0.000000 0.000000 0
-0.000006 0.000000 0
-0.000010 0.000000 0
-0.000005 0.000000 0
0.000001 0.000000 0
0.000006 0.000000 0
0.000006 0.000000 0
0.000004 0.000000 0
0.000001 0.000000 0
-0.000002 0.000000 0
-0.000003 0.000000 0
-0.000003 0.000000 0
-0.000001 0.000000 0
-0.000000 0.000000 0
0.000001 0.000000 0
0.000001 0.000000 0
0.000000 0.000000 0
0.000000 0.000000 0
-0.000000 0.000000 0
-0.000000 0.000000 0
-0.000000 0.000000 0
0.000000 -0.000011 0
-0.000002 -0.000015 0
-0.000000 -0.000012 0
0.000005 0.000001 0
0.000011 0.000013 0
0.000013 0.000018 0
0.000011 0.000015 0
0.000006 0.000008 0
-0.000002 0.000001 0
-0.000010 -0.000003 0
-0.000017 -0.000003 0
-0.000022 -0.000000 0
-0.000025 0.000002 0
-0.000028 0.000004 0
-0.000030 0.000004 0
-0.000031 0.000003 0
-0.000032 0.000002 0
-0.000032 0.000001 0
-0.000032 0.000000 0
-0.000032 -0.000000 0
-0.000031 -0.000000 0
0.000000 -0.000005 0
0.000002 -0.000010 0
0.000010 0.000001 0
0.000014 0.000008 0
0.000014 0.000008 0
0.000011 0.000004 0
0.000006 -0.000000 0
0.000002 -0.000000 0
-0.000003 0.000003 0
-0.000008 0.000008 0
-0.000015 0.000012 0
-0.000021 0.000013 0
-0.000026 0.000012 0
-0.000030 0.000008 0
-0.000033 0.000005 0
-0.000034 0.000002 0
-0.000034 0.000000 0
-0.000034 -0.000001 0
-0.000033 -0.000001 0
-0.000033 -0.000001 0
-0.000033 -0.000000 0
0.000000 0.000005 0
0.000010 -0.000004 0
0.000014 -0.000003 0
0.000013 -0.000006 0
0.000011 -0.000008 0
0.000010 -0.000005 0
0.000009 0.000002 0
0.000007 0.000012 0
0.000002 0.000020 0
-0.000005 0.000025 0
-0.000014 0.000024 0
-0.000023 0.000020 0
-0.000030 0.000014 0
-0.000034 0.000008 0
-0.000036 0.000004 0
-0.000036 0.000001 0
-0.000035 -0.000001 0
-0.000034 -0.000001 0
-0.000033 -0.000001 0
-0.000033 -0.000001 0
-0.000032 -0.000001 0
0.000000 0.000003 0
0.000009 -0.000012 0
0.000011 -0.000017 0
0.000012 -0.000016 0
0.000015 -0.000009 0
0.000017 0.000003 0
0.000018 0.000016 0
0.000014 0.000027 0
0.000006 0.000032 0
-0.000005 0.000032 0
-0.000017 0.000029 0
-0.000027 0.000022 0
-0.000034 0.000015 0
-0.000037 0.000009 0
-0.000038 0.000005 0
-0.000037 0.000001 0
-0.000035 -0.000001 0
-0.000034 -0.000002 0
-0.000033 -0.000002 0
-0.000032 -0.000001 0
-0.000032 -0.000001 0
0.000000 -0.000003 0
0.000005 -0.000024 0
0.000012 -0.000022 0
0.000018 -0.000014 0
0.000023 -0.000003 0
0.000026 0.000009 0
0.000025 0.000021 0
0.000018 0.000030 0
0.000007 0.000037 0
-0.000007 0.000039 0
-0.000020 0.000037 0
-0.000031 0.000030 0
-0.000038 0.000022 0
-0.000041 0.000013 0
-0.000040 0.000006 0
-0.000038 0.000000 0
-0.000036 -0.000002 0
-0.000034 -0.000003 0
-0.000032 -0.000003 0
-0.000031 -0.000002 0
-0.000030 -0.000001 0
0.000000 -0.000002 0
0.000006 -0.000028 0
0.000016 -0.000023 0
0.000024 -0.000016 0
0.000029 -0.000007 0
0.000031 0.000003 0
0.000030 0.000018 0
0.000023 0.000034 0
0.000011 0.000049 0
-0.000005 0.000056 0
-0.000022 0.000053 0
-0.000035 0.000043 0
-0.000042 0.000028 0
-0.000044 0.000014 0
-0.000043 0.000004 0
-0.000039 -0.000003 0
-0.000035 -0.000006 0
-0.000032 -0.000006 0
-0.000030 -0.000005 0
-0.000028 -0.000003 0
-0.000028 -0.000001 0
0.000000 0.000002 0
0.000009 -0.000032 0
0.000017 -0.000031 0
0.000024 -0.000027 0
0.000030 -0.000019 0
0.000035 -0.000003 0
0.000035 0.000020 0
0.000030 0.000046 0
0.000016 0.000068 0
-0.000004 0.000078 0
-0.000024 0.000072 0
-0.000039 0.000054 0
-0.000046 0.000032 0
-0.000046 0.000012 0
-0.000043 -0.000001 0
-0.000038 -0.000008 0
-0.000033 -0.000010 0
-0.000029 -0.000009 0
-0.000026 -0.000007 0
-0.000025 -0.000003 0
-0.000025 -0.000002 0
0.000000 0.000001 0
0.000008 -0.000041 0
0.000015 -0.000043 0
0.000022 -0.000038 0
0.000030 -0.000026 0
0.000036 -0.000004 0
0.000039 0.000026 0
0.000034 0.000060 0
0.000019 0.000088 0
-0.000003 0.000099 0
-0.000025 0.000089 0
-0.000040 0.000063 0
-0.000045 0.000034 0
-0.000044 0.000009 0
-0.000039 -0.000006 0
-0.000033 -0.000013 0
-0.000028 -0.000015 0
-0.000024 -0.000013 0
-0.000021 -0.000009 0
-0.000020 -0.000004 0
-0.000020 -0.000002 0
0.000000 -0.000001 0
0.000004 -0.000050 0
0.000011 -0.000050 0
0.000018 -0.000043 0
0.000026 -0.000030 0
0.000031 -0.000007 0
0.000034 0.000027 0
0.000030 0.000068 0
0.000017 0.000104 0
-0.000002 0.000119 0
-0.000021 0.000106 0
-0.000033 0.000073 0
-0.000037 0.000035 0
-0.000035 0.000006 0
-0.000030 -0.000011 0
-0.000025 -0.000018 0
-0.000020 -0.000019 0
-0.000017 -0.000016 0
-0.000014 -0.000011 0
-0.000013 -0.000005 0
-0.000013 -0.000002 0
0.000000 -0.000001 0
0.000002 -0.000054 0
0.000007 -0.000053 0
0.000011 -0.000047 0
0.000015 -0.000036 0
0.000018 -0.000013 0
0.000019 0.000025 0
0.000017 0.000073 0
0.000010 0.000117 0
-0.000001 0.000136 0
-0.000011 0.000120 0
-0.000018 0.000080 0
-0.000020 0.000036 0
-0.000018 0.000003 0
-0.000015 -0.000016 0
-0.000012 -0.000023 0
-0.000009 -0.000023 0
-0.000007 -0.000019 0
-0.000006 -0.000012 0
-0.000005 -0.000005 0
-0.000005 -0.000002 0
0.000000 0.000000 0
-0.000000 -0.000054 0
0.000000 -0.000055 0
0.000000 -0.000051 0
-0.000000 -0.000039 0
-0.000000 -0.000015 0
-0.000001 0.000025 0
-0.000000 0.000076 0
0.000000 0.000123 0
0.000001 0.000143 0
0.000002 0.000125 0
0.000003 0.000083 0
0.000003 0.000036 0
0.000003 0.000001 0
0.000003 -0.000018 0
0.000003 -0.000025 0
0.000003 -0.000024 0
0.000003 -0.000019 0
0.000003 -0.000013 0
0.000003 -0.000006 0
0.000003 -0.000002 0
0.000000 0.000000 0
-0.000003 -0.000053 0
-0.000007 -0.000054 0
-0.000010 -0.000049 0
-0.000014 -0.000037 0
-0.000018 -0.000013 0
-0.000020 0.000026 0
-0.000018 0.000074 0
-0.000010 0.000117 0
0.000003 0.000135 0
0.000015 0.000119 0
0.000023 0.000079 0
0.000026 0.000036 0
0.000024 0.000003 0
0.000021 -0.000016 0
0.000018 -0.000023 0
0.000015 -0.000023 0
0.000014 -0.000019 0
0.000012 -0.000012 0
0.000012 -0.000005 0
0.000012 -0.000002 0
0.000000 -0.000000 0
-0.000006 -0.000049 0
-0.000012 -0.000049 0
-0.000018 -0.000043 0
-0.000025 -0.000030 0
-0.000030 -0.000008 0
-0.000033 0.000025 0
-0.000029 0.000066 0
-0.000016 0.000102 0
0.000004 0.000117 0
0.000024 0.000104 0
0.000037 0.000072 0
0.000042 0.000035 0
0.000040 0.000006 0
0.000036 -0.000011 0
0.000031 -0.000019 0
0.000026 -0.000019 0
0.000023 -0.000016 0
0.000021 -0.000011 0
0.000020 -0.000005 0
0.000019 -0.000002 0
0.000000 -0.000000 0
-0.000007 -0.000042 0
-0.000015 -0.000041 0
-0.000022 -0.000035 0
-0.000030 -0.000023 0
-0.000036 -0.000004 0
-0.000038 0.000023 0
-0.000032 0.000055 0
-0.000017 0.000083 0
0.000005 0.000095 0
0.000027 0.000086 0
0.000043 0.000062 0
0.000050 0.000033 0
0.000049 0.000009 0
0.000045 -0.000006 0
0.000039 -0.000014 0
0.000034 -0.000015 0
0.000030 -0.000013 0
0.000028 -0.000009 0
0.000026 -0.000004 0
0.000026 -0.000002 0
0.000000 0.000000 0
-0.000008 -0.000034 0
-0.000016 -0.000032 0
-0.000024 -0.000027 0
-0.000031 -0.000017 0
-0.000036 -0.000001 0
-0.000036 0.000021 0
-0.000030 0.000045 0
-0.000015 0.000064 0
0.000006 0.000073 0
0.000027 0.000067 0
0.000043 0.000050 0
0.000050 0.000029 0
0.000051 0.000011 0
0.000048 -0.000002 0
0.000044 -0.000009 0
0.000040 -0.000011 0
0.000036 -0.000010 0
0.000033 -0.000007 0
0.000032 -0.000003 0
0.000032 -0.000001 0
0.000000 -0.000000 0
-0.000008 -0.000026 0
-0.000015 -0.000025 0
-0.000023 -0.000020 0
-0.000029 -0.000011 0
-0.000032 0.000001 0
-0.000031 0.000017 0
-0.000024 0.000034 0
-0.000011 0.000047 0
0.000007 0.000053 0
0.000025 0.000049 0
0.000039 0.000038 0
0.000047 0.000024 0
0.000050 0.000011 0
0.000049 0.000001 0
0.000046 -0.000005 0
0.000042 -0.000007 0
0.000039 -0.000007 0
0.000037 -0.000005 0
0.000036 -0.000003 0
0.000036 -0.000001 0
0.000000 -0.000000 0
-0.000007 -0.000019 0
-0.000014 -0.000017 0
-0.000021 -0.000013 0
-0.000025 -0.000007 0
-0.000027 0.000002 0
-0.000026 0.000013 0
-0.000019 0.000024 0
-0.000007 0.000033 0
0.000008 0.000037 0
0.000023 0.000034 0
0.000035 0.000028 0
0.000044 0.000018 0
0.000047 0.000009 0
0.000048 0.000002 0
0.000046 -0.000002 0
0.000044 -0.000004 0
0.000042 -0.000004 0
0.000040 -0.000003 0
0.000039 -0.000002 0
0.000038 -0.000001 0
0.000000 -0.000000 0
-0.000007 -0.000012 0
-0.000013 -0.000011 0
-0.000019 -0.000008 0
-0.000023 -0.000004 0
-0.000024 0.000002 0
-0.000021 0.000009 0
-0.000015 0.000015 0
-0.000005 0.000021 0
0.000008 0.000023 0
0.000021 0.000022 0
0.000032 0.000018 0
0.000040 0.000012 0
0.000045 0.000007 0
0.000046 0.000002 0
0.000046 -0.000001 0
0.000045 -0.000002 0
0.000043 -0.000003 0
0.000041 -0.000002 0
0.000040 -0.000001 0
0.000040 -0.000001 0
0.000000 -0.000000 0
-0.000006 -0.000006 0
-0.000012 -0.000005 0
-0.000017 -0.000004 0
-0.000020 -0.000002 0
-0.000021 0.000001 0
-0.000018 0.000004 0
-0.000012 0.000007 0
-0.000003 0.000010 0
0.000008 0.000011 0
0.000020 0.000010 0
0.000030 0.000008 0
0.000037 0.000006 0
0.000042 0.000003 0
0.000044 0.000001 0
0.000044 -0.000000 0
0.000043 -0.000001 0
0.000042 -0.000001 0
0.000041 -0.000001 0
0.000040 -0.000001 0
0.000039 -0.000000 0
0.000000 0.000000 0
-0.000000 0.000000 0
-0.000000 0.000000 0
-0.000000 0.000000 0
-0.000000 0.000000 0
-0.000000 0.000000 0
-0.000000 0.000000 0
0.000000 0.000000 0
0.000000 0.000000 0
0.000000 0.000000 0
0.000000 0.000000 0
0.000000 0.000000 0
0.000000 0.000000 0
0.000000 0.000000 0
0.000000 0.000000 0
0.000000 0.000000 0
0.000000 0.000000 0
0.000000 0.000000 0
0.000000 0.000000 0
0.000000 0.000000 0
0.000000 0.000000 0

CELL_DATA 400 
SCALARS pressure float 1 
LOOKUP_TABLE default 
0.242578
0.242604
0.242642
0.242663
0.242657
0.242633
0.242607
0.242591
0.242589
0.242598
0.242611
0.242622
0.242628
0.242628
0.242625
0.242623
0.242621
0.242621
0.242621
0.242622
0.219621
0.219639
0.219634
0.219617
0.219601
0.219595
0.219600
0.219611
0.219622
0.219628
0.219629
0.219626
0.219621
0.219618
0.219617
0.219618
0.219619
0.219620
0.219621
0.219622
0.196643
0.196620
0.196596
0.196589
0.196599
0.196618
0.196633
0.196640
0.196636
0.196627
0.196618
0.196612
0.196611
0.196614
0.196617
0.196620
0.196621
0.196622
0.196622
0.196623
0.173623
0.173600
0.173597
0.173611
0.173629
0.173640
0.173639
0.173630
0.173619
0.173610
0.173608
0.173610
0.173614
0.173619
0.173621
0.173622
0.173622
0.173622
0.173622
0.173623
0.150611
0.150613
0.150621
0.150629
0.150629
0.150624
0.150617
0.150612
0.150610
0.150612
0.150616
0.150619
0.150621
0.150621
0.150621
0.150621
0.150621
0.150621
0.150622
0.150622
0.127624
0.127628
0.127624
0.127616
0.127610
0.127608
0.127611
0.127616
0.127621
0.127623
0.127623
0.127621
0.127619
0.127618
0.127618
0.127619
0.127620
0.127621
0.127622
0.127622
0.104632
0.104623
0.104612
0.104607
0.104608
0.104615
0.104622
0.104626
0.104626
0.104623
0.104619
0.104617
0.104616
0.104617
0.104619
0.104620
0.104621
0.104622
0.104622
0.104622
0.081624
0.081616
0.081613
0.081616
0.081620
0.081623
0.081624
0.081623
0.081620
0.081617
0.081616
0.081617
0.081618
0.081619
0.081620
0.081621
0.081622
0.081622
0.081622
0.081622
0.058618
0.058621
0.058623
0.058623
0.058622
0.058620
0.058618
0.058617
0.058617
0.058618
0.058620
0.058620
0.058621
0.058621
0.058621
0.058621
0.058621
0.058622
0.058622
0.058622
0.035623
0.035627
0.035625
0.035620
0.035617
0.035616
0.035617
0.035619
0.035621
0.035623
0.035623
0.035622
0.035621
0.035621
0.035621
0.035621
0.035622
0.035622
0.035622
0.035622
0.012626
0.012626
0.012622
0.012619
0.012618
0.012620
0.012622
0.012624
0.012624
0.012624
0.012623
0.012622
0.012622
0.012622
0.012622
0.012622
0.012622
0.012622
0.012623
0.012623
-0.010376
-0.010377
-0.010377
-0.010377
-0.010377
-0.010376
-0.010376
-0.010376
-0.010376
-0.010376
-0.010376
-0.010376
-0.010377
-0.010377
-0.010377
-0.010377
-0.010377
-0.010377
-0.010377
-0.010377
-0.033377
-0.033375
-0.033374
-0.033374
-0.033375
-0.033376
-0.033376
-0.033376
-0.033375
-0.033374
-0.033374
-0.033374
-0.033375
-0.033375
-0.033376
-0.033376
-0.033377
-0.033377
-0.033377
-0.033377
-0.056376
-0.056373
-0.056373
-0.056374
-0.056375
-0.056376
-0.056375
-0.056374
-0.056373
-0.056372
-0.056372
-0.056373
-0.056374
-0.056375
-0.056375
-0.056376
-0.056376
-0.056377
-0.056377
-0.056377
-0.079375
-0.079373
-0.079373
-0.079374
-0.079374
-0.079374
-0.079373
-0.079373
-0.079372
-0.079372
-0.079372
-0.079373
-0.079373
-0.079374
-0.079375
-0.079375
-0.079376
-0.079376
-0.079377
-0.079377
-0.102375
-0.102374
-0.102373
-0.102373
-0.102372
-0.102372
-0.102372
-0.102372
-0.102372
-0.102372
-0.102372
-0.102372
-0.102373
-0.102374
-0.102374
-0.102375
-0.102376
-0.102376
-0.102377
-0.102377
-0.125374
-0.125373
-0.125372
-0.125372
-0.125372
-0.125372
-0.125372
-0.125372
-0.125372
-0.125372
-0.125372
-0.125372
-0.125373
-0.125373
-0.125374
-0.125375
-0.125375
-0.125376
-0.125377
-0.125377
-0.148374
-0.148373
-0.148372
-0.148372
-0.148372
-0.148372
-0.148372
-0.148372
-0.148372
-0.148372
-0.148372
-0.148372
-0.148372
-0.148373
-0.148374
-0.148375
-0.148375
-0.148376
-0.148376
-0.148377
-0.171373
-0.171373
-0.171372
-0.171372
-0.171372
-0.171372
-0.171372
-0.171371
-0.171371
-0.171371
-0.171372
-0.171372
-0.171372
-0.171373
-0.171374
-0.171374
-0.171375
-0.171376
-0.171376
-0.171377
-0.194373
-0.194373
-0.194373
-0.194372
-0.194371
-0.194371
-0.194371
-0.194371
-0.194371
-0.194371
-0.194372
-0.194372
-0.194372
-0.194373
-0.194374
-0.194374
-0.194375
-0.194376
-0.194376
-0.194377

SCALARS temperature float 1 
LOOKUP_TABLE default 
0.000002
0.000021
0.000060
0.000118
0.000194
0.000280
0.000366
0.000437
0.000482
0.000490
0.000463
0.000407
0.000334
0.000258
0.000189
0.000132
0.000091
0.000062
0.000045
0.000038
0.000003
0.000027
0.000076
0.000150
0.000246
0.000358
0.000469
0.000561
0.000618
0.000629
0.000592
0.000518
0.000423
0.000325
0.000236
0.000165
0.000112
0.000077
0.000056
0.000046
0.000004
0.000039
0.000112
0.000222
0.000368
0.000538
0.000709
0.000853
0.000940
0.000954
0.000893
0.000775
0.000627
0.000476
0.000342
0.000235
0.000158
0.000107
0.000077
0.000063
0.000007
0.000062
0.000177
0.000356
0.000595
0.000878
0.001167
0.001412
0.001560
0.001579
0.001468
0.001261
0.001006
0.000751
0.000531
0.000360
0.000238
0.000159
0.000113
0.000093
0.000011
0.000100
0.000285
0.000579
0.000980
0.001463
0.001967
0.002399
0.002660
0.002685
0.002477
0.002098
0.001646
0.001207
0.000837
0.000557
0.000363
0.000239
0.000168
0.000136
0.000017
0.000155
0.000448
0.000920
0.001581
0.002397
0.003270
0.004032
0.004495
0.004528
0.004135
0.003448
0.002652
0.001904
0.001293
0.000844
0.000540
0.000350
0.000244
0.000196
0.000026
0.000231
0.000672
0.001399
0.002444
0.003775
0.005244
0.006559
0.007364
0.007402
0.006683
0.005470
0.004113
0.002884
0.001915
0.001223
0.000769
0.000492
0.000338
0.000271
0.000036
0.000322
0.000948
0.002002
0.003561
0.005616
0.007967
0.010139
0.011488
0.011525
0.010271
0.008230
0.006035
0.004126
0.002676
0.001675
0.001035
0.000652
0.000444
0.000353
0.000047
0.000418
0.001242
0.002658
0.004814
0.007757
0.011251
0.014593
0.016708
0.016736
0.014713
0.011532
0.008243
0.005497
0.003487
0.002143
0.001304
0.000813
0.000548
0.000434
0.000056
0.000501
0.001497
0.003237
0.005949
0.009760
0.014435
0.019047
0.022020
0.022035
0.019143
0.014719
0.010294
0.006725
0.004193
0.002541
0.001529
0.000945
0.000634
0.000501
0.000061
0.000549
0.001646
0.003580
0.006630
0.010987
0.016433
0.021902
0.025470
0.025476
0.021987
0.016720
0.011552
0.007463
0.004611
0.002775
0.001662
0.001023
0.000685
0.000540
0.000061
0.000549
0.001646
0.003576
0.006615
0.010948
0.016353
0.021773
0.025310
0.025323
0.021875
0.016660
0.011531
0.007463
0.004619
0.002785
0.001670
0.001030
0.000690
0.000545
0.000056
0.000503
0.001500
0.003235
0.005923
0.009680
0.014265
0.018773
0.021681
0.021712
0.018911
0.014599
0.010261
0.006739
0.004223
0.002573
0.001557
0.000967
0.000651
0.000516
0.000048
0.000424
0.001255
0.002674
0.004816
0.007714
0.011131
0.014384
0.016446
0.016493
0.014554
0.011475
0.008263
0.005556
0.003555
0.002204
0.001353
0.000850
0.000578
0.000460
0.000038
0.000334
0.000978
0.002051
0.003623
0.005674
0.007997
0.010133
0.011461
0.011516
0.010311
0.008324
0.006163
0.004259
0.002794
0.001770
0.001106
0.000706
0.000485
0.000388
0.000028
0.000249
0.000722
0.001492
0.002584
0.003957
0.005456
0.006791
0.007610
0.007664
0.006957
0.005744
0.004369
0.003104
0.002090
0.001355
0.000864
0.000561
0.000390
0.000315
0.000020
0.000181
0.000519
0.001056
0.001797
0.002700
0.003655
0.004483
0.004987
0.005034
0.004625
0.003895
0.003034
0.002211
0.001526
0.001012
0.000659
0.000435
0.000307
0.000249
0.000015
0.000132
0.000375
0.000755
0.001267
0.001874
0.002500
0.003033
0.003357
0.003397
0.003152
0.002697
0.002143
0.001596
0.001125
0.000761
0.000505
0.000338
0.000242
0.000198
0.000011
0.000102
0.000287
0.000573
0.000951
0.001392
0.001839
0.002215
0.002444
0.002478
0.002317
0.002005
0.001616
0.001223
0.000876
0.000602
0.000405
0.000275
0.000198
0.000163
0.000010
0.000087
0.000246
0.000488
0.000806
0.001174
0.001543
0.001852
0.002041
0.002072
0.001944
0.001693
0.001376
0.001050
0.000759
0.000526
0.000357
0.000244
0.000177
0.000146


SCALARS Species_1 float 1 
LOOKUP_TABLE default 
0.000450
0.001371
0.002348
0.003405
0.004548
0.005766
0.007026
0.008278
0.009458
0.010498
0.011337
0.011927
0.012248
0.012305
0.012138
0.011809
0.011399
0.010994
0.010674
0.010499
0.000465
0.001416
0.002425
0.003514
0.004692
0.005945
0.007240
0.008526
0.009737
0.010804
0.011664
0.012270
0.012599
0.012659
0.012488
0.012152
0.011734
0.011321
0.010994
0.010815
0.000491
0.001496
0.002560
0.003708
0.004948
0.006265
0.007626
0.008975
0.010245
0.011364
0.012265
0.012898
0.013242
0.013305
0.013126
0.012775
0.012338
0.011906
0.011565
0.011378
0.000526
0.001599
0.002735
0.003960
0.005280
0.006682
0.008129
0.009562
0.010910
0.012096
0.013051
0.013722
0.014086
0.014151
0.013961
0.013589
0.013125
0.012668
0.012307
0.012109
0.000563
0.001712
0.002926
0.004234
0.005643
0.007137
0.008678
0.010203
0.011636
0.012897
0.013910
0.014622
0.015007
0.015075
0.014872
0.014477
0.013984
0.013499
0.013116
0.012906
0.000598
0.001818
0.003106
0.004492
0.005984
0.007565
0.009194
0.010805
0.012318
0.013648
0.014717
0.015467
0.015872
0.015943
0.015729
0.015311
0.014792
0.014281
0.013877
0.013656
0.000625
0.001902
0.003249
0.004697
0.006254
0.007903
0.009601
0.011279
0.012855
0.014239
0.015351
0.016130
0.016551
0.016625
0.016402
0.015968
0.015428
0.014898
0.014479
0.014249
0.000642
0.001951
0.003333
0.004816
0.006411
0.008099
0.009835
0.011551
0.013161
0.014575
0.015710
0.016507
0.016936
0.017012
0.016785
0.016343
0.015793
0.015252
0.014825
0.014591
0.000644
0.001957
0.003342
0.004828
0.006425
0.008114
0.009852
0.011568
0.013178
0.014592
0.015726
0.016523
0.016953
0.017029
0.016804
0.016363
0.015816
0.015277
0.014851
0.014618
0.000630
0.001915
0.003270
0.004724
0.006284
0.007935
0.009632
0.011308
0.012880
0.014260
0.015368
0.016146
0.016567
0.016643
0.016425
0.015997
0.015466
0.014942
0.014528
0.014301
0.000601
0.001827
0.003119
0.004505
0.005992
0.007565
0.009182
0.010778
0.012275
0.013590
0.014646
0.015387
0.015790
0.015865
0.015660
0.015256
0.014752
0.014255
0.013863
0.013648
0.000559
0.001699
0.002899
0.004187
0.005569
0.007030
0.008532
0.010014
0.011405
0.012626
0.013608
0.014298
0.014674
0.014746
0.014559
0.014187
0.013722
0.013264
0.012901
0.012702
0.000506
0.001539
0.002628
0.003795
0.005047
0.006371
0.007731
0.009075
0.010335
0.011442
0.012333
0.012960
0.013303
0.013372
0.013206
0.012872
0.012454
0.012041
0.011714
0.011535
0.000448
0.001362
0.002325
0.003358
0.004467
0.005638
0.006842
0.008031
0.009147
0.010128
0.010918
0.011476
0.011783
0.011847
0.011703
0.011411
0.011044
0.010681
0.010393
0.010235
0.000388
0.001180
0.002015
0.002910
0.003871
0.004887
0.005931
0.006962
0.007931
0.008783
0.009470
0.009957
0.010226
0.010285
0.010164
0.009914
0.009598
0.009285
0.009037
0.008901
0.000331
0.001007
0.001719
0.002483
0.003304
0.004171
0.005063
0.005945
0.006773
0.007503
0.008092
0.008510
0.008743
0.008797
0.008697
0.008486
0.008219
0.007954
0.007743
0.007627
0.000281
0.000853
0.001458
0.002106
0.002802
0.003539
0.004297
0.005046
0.005751
0.006372
0.006875
0.007233
0.007434
0.007483
0.007401
0.007225
0.007000
0.006776
0.006598
0.006500
0.000240
0.000730
0.001247
0.001802
0.002399
0.003030
0.003680
0.004323
0.004929
0.005463
0.005896
0.006206
0.006381
0.006426
0.006358
0.006209
0.006018
0.005828
0.005676
0.005592
0.000211
0.000643
0.001100
0.001590
0.002117
0.002675
0.003249
0.003818
0.004354
0.004828
0.005213
0.005489
0.005646
0.005687
0.005629
0.005499
0.005332
0.005164
0.005031
0.004957
0.000197
0.000599
0.001024
0.001481
0.001972
0.002492
0.003028
0.003559
0.004060
0.004502
0.004862
0.005121
0.005268
0.005308
0.005255
0.005135
0.004979
0.004823
0.004699
0.004630


SCALARS Species_2 float 1 
LOOKUP_TABLE default 
0.000256
0.000753
0.001205
0.001588
0.001881
0.002074
0.002164
0.002157
0.002066
0.001909
0.001706
0.001477
0.001242
0.001016
0.000810
0.000633
0.000490
0.000382
0.000310
0.000275
0.000286
0.000842
0.001347
0.001774
0.002102
0.002317
0.002417
0.002409
0.002308
0.002133
0.001906
0.001651
0.001388
0.001135
0.000906
0.000708
0.000548
0.000428
0.000348
0.000308
0.000346
0.001016
0.001626
0.002140
0.002533
0.002792
0.002912
0.002901
0.002779
0.002567
0.002294
0.001986
0.001670
0.001366
0.001090
0.000853
0.000661
0.000516
0.000420
0.000372