# vtk DataFile Version 2.0
generated by CFD-lab course output (written by Tobias Neckel) 
ASCII

DATASET STRUCTURED_GRID
DIMENSIONS  21 21 1 
POINTS 441 float

0.000000 0.000000 0
0.100000 0.000000 0
0.200000 0.000000 0
0.300000 0.000000 0
0.400000 0.000000 0
0.500000 0.000000 0
0.600000 0.000000 0
0.700000 0.000000 0
0.800000 0.000000 0
0.900000 0.000000 0
1.000000 0.000000 0
1.100000 0.000000 0
1.200000 0.000000 0
1.300000 0.000000 0
1.400000 0.000000 0
1.500000 0.000000 0
1.600000 0.000000 0
1.700000 0.000000 0
1.800000 0.000000 0
1.900000 0.000000 0
2.000000 0.000000 0
0.000000 0.100000 0
0.100000 0.100000 0
0.200000 0.100000 0
0.300000 0.100000 0
0.400000 0.100000 0
0.500000 0.100000 0
0.600000 0.100000 0
0.700000 0.100000 0
0.800000 0.100000 0
0.900000 0.100000 0
1.000000 0.100000 0
1.100000 0.100000 0
1.200000 0.100000 0
1.300000 0.100000 0
1.400000 0.100000 0
1.500000 0.100000 0
1.600000 0.100000 0
1.700000 0.100000 0
1.800000 0.100000 0
1.900000 0.100000 0
2.000000 0.100000 0
0.000000 0.200000 0
0.100000 0.200000 0
0.200000 0.200000 0
0.300000 0.200000 0
0.400000 0.200000 0
0.500000 0.200000 0
0.600000 0.200000 0
0.700000 0.200000 0
0.800000 0.200000 0
0.900000 0.200000 0
1.000000 0.200000 0
1.100000 0.200000 0
1.200000 0.200000 0
1.300000 0.200000 0
1.400000 0.200000 0
1.500000 0.200000 0
1.600000 0.200000 0
1.700000 0.200000 0
1.800000 0.200000 0
1.900000 0.200000 0
2.000000 0.200000 0
0.000000 0.300000 0
0.100000 0.300000 0
0.200000 0.300000 0
0.300000 0.300000 0
0.400000 0.300000 0
0.500000 0.300000 0
0.600000 0.300000 0
0.700000 0.300000 0
0.800000 0.300000 0
0.900000 0.300000 0
1.000000 0.300000 0
1.100000 0.300000 0
1.200000 0.300000 0
1.300000 0.300000 0
1.400000 0.300000 0
1.500000 0.300000 0
1.600000 0.300000 0
1.700000 0.300000 0
1.800000 0.300000 0
1.900000 0.300000 0
2.000000 0.300000 0
0.000000 0.400000 0
0.100000 0.400000 0
0.200000 0.400000 0
0.300000 0.400000 0
0.400000 0.400000 0
0.500000 0.400000 0
0.600000 0.400000 0
0.700000 0.400000 0
0.800000 0.400000 0
0.900000 0.400000 0
1.000000 0.400000 0
1.100000 0.400000 0
1.200000 0.400000 0
1.300000 0.400000 0
1.400000 0.400000 0
1.500000 0.400000 0
1.600000 0.400000 0
1.700000 0.400000 0
1.800000 0.400000 0
1.900000 0.400000 0
2.000000 0.400000 0
0.000000 0.500000 0
0.100000 0.500000 0
0.200000 0.500000 0
0.300000 0.500000 0
0.400000 0.500000 0
0.500000 0.500000 0
0.600000 0.500000 0
0.700000 0.500000 0
0.800000 0.500000 0
0.900000 0.500000 0
1.000000 0.500000 0
1.100000 0.500000 0
1.200000 0.500000 0
1.300000 0.500000 0
1.400000 0.500000 0
1.500000 0.500000 0
1.600000 0.500000 0
1.700000 0.500000 0
1.800000 0.500000 0
1.900000 0.500000 0
2.000000 0.500000 0
0.000000 0.600000 0
0.100000 0.600000 0
0.200000 0.600000 0
0.300000 0.600000 0
0.400000 0.600000 0
0.500000 0.600000 0
0.600000 0.600000 0
0.700000 0.600000 0
0.800000 0.600000 0
0.900000 0.600000 0
1.000000 0.600000 0
1.100000 0.600000 0
1.200000 0.600000 0
1.300000 0.600000 0
1.400000 0.600000 0
1.500000 0.600000 0
1.600000 0.600000 0
1.700000 0.600000 0
1.800000 0.600000 0
1.900000 0.600000 0
2.000000 0.600000 0
0.000000 0.700000 0
0.100000 0.700000 0
0.200000 0.700000 0
0.300000 0.700000 0
0.400000 0.700000 0
0.500000 0.700000 0
0.600000 0.700000 0
0.700000 0.700000 0
0.800000 0.700000 0
0.900000 0.700000 0
1.000000 0.700000 0
1.100000 0.700000 0
1.200000 0.700000 0
1.300000 0.700000 0
1.400000 0.700000 0
1.500000 0.700000 0
1.600000 0.700000 0
1.700000 0.700000 0
1.800000 0.700000 0
1.900000 0.700000 0
2.000000 0.700000 0
0.000000 0.800000 0
0.100000 0.800000 0
0.200000 0.800000 0
0.300000 0.800000 0
0.400000 0.800000 0
0.500000 0.800000 0
0.600000 0.800000 0
0.700000 0.800000 0
0.800000 0.800000 0
0.900000 0.800000 0
1.000000 0.800000 0
1.100000 0.800000 0
1.200000 0.800000 0
1.300000 0.800000 0
1.400000 0.800000 0
1.500000 0.800000 0
1.600000 0.800000 0
1.700000 0.800000 0
1.800000 0.800000 0
1.900000 0.800000 0
2.000000 0.800000 0
0.000000 0.900000 0
0.100000 0.900000 0
0.200000 0.900000 0
0.300000 0.900000 0
0.400000 0.900000 0
0.500000 0.900000 0
0.600000 0.900000 0
0.700000 0.900000 0
0.800000 0.900000 0
0.900000 0.900000 0
1.000000 0.900000 0
1.100000 0.900000 0
1.200000 0.900000 0
1.300000 0.900000 0
1.400000 0.900000 0
1.500000 0.900000 0
1.600000 0.900000 0
1.700000 0.900000 0
1.800000 0.900000 0
1.900000 0.900000 0
2.000000 0.900000 0
0.000000 1.000000 0
0.100000 1.000000 0
0.200000 1.000000 0
0.300000 1.000000 0
0.400000 1.000000 0
0.500000 1.000000 0
0.600000 1.000000 0
0.700000 1.000000 0
0.800000 1.000000 0
0.900000 1.000000 0
1.000000 1.000000 0
1.100000 1.000000 0
1.200000 1.000000 0
1.300000 1.000000 0
1.400000 1.000000 0
1.500000 1.000000 0
1.600000 1.000000 0
1.700000 1.000000 0
1.800000 1.000000 0
1.900000 1.000000 0
2.000000 1.000000 0
0.000000 1.100000 0
0.100000 1.100000 0
0.200000 1.100000 0
0.300000 1.100000 0
0.400000 1.100000 0
0.500000 1.100000 0
0.600000 1.100000 0
0.700000 1.100000 0
0.800000 1.100000 0
0.900000 1.100000 0
1.000000 1.100000 0
1.100000 1.100000 0
1.200000 1.100000 0
1.300000 1.100000 0
1.400000 1.100000 0
1.500000 1.100000 0
1.600000 1.100000 0
1.700000 1.100000 0
1.800000 1.100000 0
1.900000 1.100000 0
2.000000 1.100000 0
0.000000 1.200000 0
0.100000 1.200000 0
0.200000 1.200000 0
0.300000 1.200000 0
0.400000 1.200000 0
0.500000 1.200000 0
0.600000 1.200000 0
0.700000 1.200000 0
0.800000 1.200000 0
0.900000 1.200000 0
1.000000 1.200000 0
1.100000 1.200000 0
1.200000 1.200000 0
1.300000 1.200000 0
1.400000 1.200000 0
1.500000 1.200000 0
1.600000 1.200000 0
1.700000 1.200000 0
1.800000 1.200000 0
1.900000 1.200000 0
2.000000 1.200000 0
0.000000 1.300000 0
0.100000 1.300000 0
0.200000 1.300000 0
0.300000 1.300000 0
0.400000 1.300000 0
0.500000 1.300000 0
0.600000 1.300000 0
0.700000 1.300000 0
0.800000 1.300000 0
0.900000 1.300000 0
1.000000 1.300000 0
1.100000 1.300000 0
1.200000 1.300000 0
1.300000 1.300000 0
1.400000 1.300000 0
1.500000 1.300000 0
1.600000 1.300000 0
1.700000 1.300000 0
1.800000 1.300000 0
1.900000 1.300000 0
2.000000 1.300000 0
0.000000 1.400000 0
0.100000 1.400000 0
0.200000 1.400000 0
0.300000 1.400000 0
0.400000 1.400000 0
0.500000 1.400000 0
0.600000 1.400000 0
0.700000 1.400000 0
0.800000 1.400000 0
0.900000 1.400000 0
1.000000 1.400000 0
1.100000 1.400000 0
1.200000 1.400000 0
1.300000 1.400000 0
1.400000 1.400000 0
1.500000 1.400000 0
1.600000 1.400000 0
1.700000 1.400000 0
1.800000 1.400000 0
1.900000 1.400000 0
2.000000 1.400000 0
0.000000 1.500000 0
0.100000 1.500000 0
0.200000 1.500000 0
0.300000 1.500000 0
0.400000 1.500000 0
0.500000 1.500000 0
0.600000 1.500000 0
0.700000 1.500000 0
0.800000 1.500000 0
0.900000 1.500000 0
1.000000 1.500000 0
1.100000 1.500000 0
1.200000 1.500000 0
1.300000 1.500000 0
1.400000 1.500000 0
1.500000 1.500000 0
1.600000 1.500000 0
1.700000 1.500000 0
1.800000 1.500000 0
1.900000 1.500000 0
2.000000 1.500000 0
0.000000 1.600000 0
0.100000 1.600000 0
0.200000 1.600000 0
0.300000 1.600000 0
0.400000 1.600000 0
0.500000 1.600000 0
0.600000 1.600000 0
0.700000 1.600000 0
0.800000 1.600000 0
0.900000 1.600000 0
1.000000 1.600000 0
1.100000 1.600000 0
1.200000 1.600000 0
1.300000 1.600000 0
1.400000 1.600000 0
1.500000 1.600000 0
1.600000 1.600000 0
1.700000 1.600000 0
1.800000 1.600000 0
1.900000 1.600000 0
2.000000 1.600000 0
0.000000 1.700000 0
0.100000 1.700000 0
0.200000 1.700000 0
0.300000 1.700000 0
0.400000 1.700000 0
0.500000 1.700000 0
0.600000 1.700000 0
0.700000 1.700000 0
0.800000 1.700000 0
0.900000 1.700000 0
1.000000 1.700000 0
1.100000 1.700000 0
1.200000 1.700000 0
1.300000 1.700000 0
1.400000 1.700000 0
1.500000 1.700000 0
1.600000 1.700000 0
1.700000 1.700000 0
1.800000 1.700000 0
1.900000 1.700000 0
2.000000 1.700000 0
0.000000 1.800000 0
0.100000 1.800000 0
0.200000 1.800000 0
0.300000 1.800000 0
0.400000 1.800000 0
0.500000 1.800000 0
0.600000 1.800000 0
0.700000 1.800000 0
0.800000 1.800000 0
0.900000 1.800000 0
1.000000 1.800000 0
1.100000 1.800000 0
1.200000 1.800000 0
1.300000 1.800000 0
1.400000 1.800000 0
1.500000 1.800000 0
1.600000 1.800000 0
1.700000 1.800000 0
1.800000 1.800000 0
1.900000 1.800000 0
2.000000 1.800000 0
0.000000 1.900000 0
0.100000 1.900000 0
0.200000 1.900000 0
0.300000 1.900000 0
0.400000 1.900000 0
0.500000 1.900000 0
0.600000 1.900000 0
0.700000 1.900000 0
0.800000 1.900000 0
0.900000 1.900000 0
1.000000 1.900000 0
1.100000 1.900000 0
1.200000 1.900000 0
1.300000 1.900000 0
1.400000 1.900000 0
1.500000 1.900000 0
1.600000 1.900000 0
1.700000 1.900000 0
1.800000 1.900000 0
1.900000 1.900000 0
2.000000 1.900000 0
0.000000 2.000000 0
0.100000 2.000000 0
0.200000 2.000000 0
0.300000 2.000000 0
0.400000 2.000000 0
0.500000 2.000000 0
0.600000 2.000000 0
0.700000 2.000000 0
0.800000 2.000000 0
0.900000 2.000000 0
1.000000 2.000000 0
1.100000 2.000000 0
1.200000 2.000000 0
1.300000 2.000000 0
1.400000 2.000000 0
1.500000 2.000000 0
1.600000 2.000000 0
1.700000 2.000000 0
1.800000 2.000000 0
1.900000 2.000000 0
2.000000 2.000000 0
POINT_DATA 441 

VECTORS velocity float
0.000000 0.000000 0
-0.000013 0.000000 0
-0.000005 0.000000 0
0.000004 0.000000 0
0.000008 0.000000 0
0.000007 0.000000 0
0.000002 0.000000 0
-0.000002 0.000000 0
-0.000005 0.000000 0
-0.000004 0.000000 0
-0.000002 0.000000 0
-0.000000 0.000000 0
0.000001 0.000000 0
0.000001 0.000000 0
0.000001 0.000000 0
0.000000 0.000000 0
-0.000000 0.000000 0
-0.000000 0.000000 0
-0.000000 0.000000 0
-0.000000 0.000000 0
-0.000000 0.000000 0
0.000000 -0.000011 0
0.000018 -0.000019 0
0.000044 -0.000008 0
0.000063 -0.000003 0
0.000073 -0.000003 0
0.000071 -0.000002 0
0.000061 0.000003 0
0.000041 0.000012 0
0.000015 0.000022 0
-0.000017 0.000030 0
-0.000051 0.000033 0
-0.000083 0.000032 0
-0.000111 0.000026 0
-0.000133 0.000019 0
-0.000148 0.000012 0
-0.000158 0.000006 0
-0.000162 0.000002 0
-0.000163 -0.000000 0
-0.000162 -0.000001 0
-0.000161 -0.000001 0
-0.000161 -0.000000 0
0.000000 0.000004 0
0.000026 -0.000036 0
0.000047 -0.000037 0
0.000064 -0.000032 0
0.000074 -0.000020 0
0.000077 -0.000000 0
0.000069 0.000024 0
0.000049 0.000047 0
0.000019 0.000064 0
-0.000019 0.000072 0
-0.000059 0.000071 0
-0.000097 0.000062 0
-0.000128 0.000050 0
-0.000151 0.000036 0
-0.000166 0.000023 0
-0.000175 0.000012 0
-0.000178 0.000005 0
-0.000179 0.000000 0
-0.000178 -0.000001 0
-0.000177 -0.000001 0
-0.000177 -0.000001 0
0.000000 0.000005 0
0.000024 -0.000066 0
0.000046 -0.000066 0
0.000067 -0.000049 0
0.000083 -0.000021 0
0.000089 0.000013 0
0.000081 0.000048 0
0.000058 0.000077 0
0.000023 0.000098 0
-0.000020 0.000108 0
-0.000064 0.000106 0
-0.000104 0.000094 0
-0.000136 0.000075 0
-0.000158 0.000055 0
-0.000171 0.000035 0
-0.000177 0.000019 0
-0.000179 0.000007 0
-0.000178 0.000000 0
-0.000176 -0.000003 0
-0.000175 -0.000002 0
-0.000174 -0.000001 0
0.000000 -0.000003 0
0.000023 -0.000095 0
0.000052 -0.000088 0
0.000079 -0.000061 0
0.000097 -0.000024 0
0.000104 0.000018 0
0.000095 0.000062 0
0.000069 0.000102 0
0.000029 0.000133 0
-0.000019 0.000150 0
-0.000069 0.000149 0
-0.000112 0.000132 0
-0.000145 0.000104 0
-0.000166 0.000074 0
-0.000177 0.000045 0
-0.000180 0.000022 0
-0.000179 0.000006 0
-0.000175 -0.000002 0
-0.000171 -0.000005 0
-0.000169 -0.000003 0
-0.000169 -0.000001 0
0.000000 -0.000004 0
0.000028 -0.000121 0
0.000062 -0.000113 0
0.000090 -0.000082 0
0.000111 -0.000040 0
0.000119 0.000014 0
0.000112 0.000074 0
0.000085 0.000133 0
0.000041 0.000180 0
-0.000015 0.000204 0
-0.000073 0.000201 0
-0.000122 0.000174 0
-0.000157 0.000133 0
-0.000176 0.000088 0
-0.000183 0.000050 0
-0.000181 0.000020 0
-0.000176 0.000001 0
-0.000169 -0.000008 0
-0.000163 -0.000009 0
-0.000160 -0.000005 0
-0.000159 -0.000002 0
0.000000 0.000001 0
0.000032 -0.000151 0
0.000066 -0.000148 0
0.000097 -0.000113 0
0.000122 -0.000060 0
0.000135 0.000010 0
0.000131 0.000092 0
0.000104 0.000174 0
0.000054 0.000237 0
-0.000012 0.000267 0
-0.000078 0.000258 0
-0.000133 0.000217 0
-0.000168 0.000158 0
-0.000184 0.000099 0
-0.000185 0.000049 0
-0.000178 0.000014 0
-0.000168 -0.000007 0
-0.000158 -0.000015 0
-0.000150 -0.000014 0
-0.000146 -0.000007 0
-0.000146 -0.000002 0
0.000000 0.000002 0
0.000032 -0.000186 0
0.000066 -0.000185 0
0.000099 -0.000145 0
0.000128 -0.000080 0
0.000146 0.000007 0
0.000145 0.000111 0
0.000118 0.000216 0
0.000064 0.000299 0
-0.000008 0.000337 0
-0.000082 0.000320 0
-0.000139 0.000261 0
-0.000172 0.000182 0
-0.000182 0.000105 0
-0.000178 0.000044 0
-0.000166 0.000003 0
-0.000153 -0.000018 0
-0.000140 -0.000025 0
-0.000131 -0.000021 0
-0.000126 -0.000009 0
-0.000126 -0.000002 0
0.000000 -0.000001 0
0.000028 -0.000220 0
0.000061 -0.000220 0
0.000093 -0.000175 0
0.000122 -0.000102 0
0.000142 -0.000001 0
0.000144 0.000123 0
0.000120 0.000255 0
0.000068 0.000362 0
-0.000005 0.000411 0
-0.000078 0.000386 0
-0.000133 0.000306 0
-0.000161 0.000202 0
-0.000166 0.000106 0
-0.000157 0.000034 0
-0.000142 -0.000011 0
-0.000127 -0.000033 0
-0.000114 -0.000037 0
-0.000104 -0.000028 0
-0.000100 -0.000012 0
-0.000099 -0.000002 0
0.000000 -0.000001 0
0.000022 -0.000248 0
0.000048 -0.000249 0
0.000074 -0.000203 0
0.000098 -0.000127 0
0.000115 -0.000015 0
0.000120 0.000131 0
0.000103 0.000290 0
0.000060 0.000422 0
-0.000001 0.000482 0
-0.000062 0.000448 0
-0.000107 0.000344 0
-0.000127 0.000216 0
-0.000128 0.000102 0
-0.000117 0.000021 0
-0.000103 -0.000027 0
-0.000090 -0.000047 0
-0.000078 -0.000048 0
-0.000070 -0.000035 0
-0.000066 -0.000014 0
-0.000066 -0.000003 0
0.000000 0.000000 0
0.000013 -0.000266 0
0.000028 -0.000271 0
0.000042 -0.000226 0
0.000055 -0.000146 0
0.000066 -0.000026 0
0.000070 0.000135 0
0.000062 0.000315 0
0.000038 0.000467 0
0.000003 0.000534 0
-0.000033 0.000493 0
-0.000057 0.000370 0
-0.000068 0.000223 0
-0.000067 0.000096 0
-0.000059 0.000009 0
-0.000050 -0.000039 0
-0.000042 -0.000058 0
-0.000035 -0.000056 0
-0.000030 -0.000040 0
-0.000028 -0.000016 0
-0.000027 -0.000003 0
0.000000 0.000000 0
0.000001 -0.000274 0
0.000002 -0.000280 0
0.000002 -0.000234 0
0.000002 -0.000153 0
0.000003 -0.000030 0
0.000004 0.000136 0
0.000005 0.000324 0
0.000006 0.000483 0
0.000007 0.000553 0
0.000007 0.000508 0
0.000008 0.000379 0
0.000009 0.000224 0
0.000010 0.000093 0
0.000011 0.000004 0
0.000012 -0.000044 0
0.000013 -0.000062 0
0.000014 -0.000060 0
0.000014 -0.000042 0
0.000015 -0.000017 0
0.000015 -0.000003 0
0.000000 -0.000000 0
-0.000011 -0.000268 0
-0.000024 -0.000273 0
-0.000038 -0.000227 0
-0.000052 -0.000146 0
-0.000061 -0.000026 0
-0.000064 0.000134 0
-0.000053 0.000313 0
-0.000027 0.000465 0
0.000010 0.000532 0
0.000047 0.000491 0
0.000074 0.000368 0
0.000086 0.000221 0
0.000086 0.000094 0
0.000081 0.000008 0
0.000074 -0.000041 0
0.000068 -0.000060 0
0.000062 -0.000058 0
0.000059 -0.000041 0
0.000057 -0.000016 0
0.000057 -0.000003 0
0.000000 -0.000000 0
-0.000021 -0.000250 0
-0.000046 -0.000252 0
-0.000071 -0.000206 0
-0.000095 -0.000130 0
-0.000111 -0.000018 0
-0.000114 0.000128 0
-0.000095 0.000287 0
-0.000050 0.000419 0
0.000013 0.000479 0
0.000076 0.000445 0
0.000123 0.000341 0
0.000145 0.000212 0
0.000148 0.000098 0
0.000141 0.000017 0
0.000129 -0.000031 0
0.000117 -0.000051 0
0.000108 -0.000051 0
0.000101 -0.000037 0
0.000098 -0.000015 0
0.000098 -0.000002 0
0.000000 -0.000000 0
-0.000028 -0.000222 0
-0.000061 -0.000222 0
-0.000094 -0.000178 0
-0.000122 -0.000107 0
-0.000140 -0.000007 0
-0.000141 0.000117 0
-0.000115 0.000249 0
-0.000060 0.000357 0
0.000015 0.000406 0
0.000091 0.000382 0
0.000149 0.000300 0
0.000180 0.000195 0
0.000188 0.000099 0
0.000183 0.000027 0
0.000170 -0.000018 0
0.000157 -0.000039 0
0.000146 -0.000042 0
0.000138 -0.000031 0
0.000134 -0.000013 0
0.000133 -0.000002 0
0.000000 0.000000 0
-0.000032 -0.000188 0
-0.000070 -0.000186 0
-0.000105 -0.000146 0
-0.000134 -0.000084 0
-0.000150 0.000001 0
-0.000147 0.000103 0
-0.000117 0.000206 0
-0.000060 0.000289 0
0.000017 0.000328 0
0.000094 0.000311 0
0.000156 0.000252 0
0.000193 0.000172 0
0.000208 0.000095 0
0.000207 0.000034 0
0.000199 -0.000006 0
0.000187 -0.000026 0
0.000176 -0.000032 0
0.000168 -0.000025 0
0.000164 -0.000011 0
0.000163 -0.000002 0
0.000000 -0.000000 0
-0.000034 -0.000152 0
-0.000074 -0.000149 0
-0.000109 -0.000114 0
-0.000136 -0.000062 0
-0.000148 0.000006 0
-0.000141 0.000084 0
-0.000110 0.000162 0
-0.000054 0.000223 0
0.000017 0.000252 0
0.000091 0.000242 0
0.000152 0.000201 0
0.000193 0.000143 0
0.000214 0.000085 0
0.000220 0.000036 0
0.000216 0.000003 0
0.000208 -0.000016 0
0.000199 -0.000023 0
0.000192 -0.000019 0
0.000188 -0.000008 0
0.000188 -0.000002 0
0.000000 -0.000000 0
-0.000035 -0.000115 0
-0.000075 -0.000111 0
-0.000110 -0.000084 0
-0.000134 -0.000044 0
-0.000144 0.000007 0
-0.000134 0.000064 0
-0.000102 0.000119 0
-0.000049 0.000162 0
0.000017 0.000182 0
0.000085 0.000177 0
0.000145 0.000150 0
0.000188 0.000110 0
0.000214 0.000068 0
0.000226 0.000032 0
0.000227 0.000006 0
0.000223 -0.000010 0
0.000216 -0.000016 0
0.000210 -0.000014 0
0.000207 -0.000006 0
0.000206 -0.000001 0
0.000000 -0.000000 0
-0.000037 -0.000076 0
-0.000078 -0.000074 0
-0.000113 -0.000055 0
-0.000136 -0.000028 0
-0.000143 0.000005 0
-0.000131 0.000042 0
-0.000099 0.000077 0
-0.000048 0.000104 0
0.000015 0.000118 0
0.000080 0.000115 0
0.000138 0.000098 0
0.000184 0.000073 0
0.000214 0.000047 0
0.000230 0.000023 0
0.000235 0.000005 0
0.000233 -0.000005 0
0.000228 -0.000010 0
0.000223 -0.000009 0
0.000219 -0.000004 0
0.000219 -0.000001 0
0.000000 0.000000 0
-0.000036 -0.000037 0
-0.000077 -0.000035 0
-0.000110 -0.000026 0
-0.000132 -0.000014 0
-0.000138 0.000002 0
-0.000126 0.000020 0
-0.000096 0.000036 0
-0.000049 0.000048 0
0.000009 0.000055 0
0.000069 0.000053 0
0.000123 0.000046 0
0.000167 0.000035 0
0.000197 0.000022 0
0.000213 0.000011 0
0.000220 0.000003 0
0.000219 -0.000003 0
0.000214 -0.000005 0
0.000209 -0.000005 0
0.000205 -0.000002 0
0.000205 -0.000000 0
0.000000 0.000000 0
-0.000000 0.000000 0
-0.000000 0.000000 0
-0.000000 0.000000 0
-0.000000 0.000000 0
-0.000000 0.000000 0
-0.000000 0.000000 0
-0.000000 0.000000 0
-0.000000 0.000000 0
-0.000000 0.000000 0
-0.000000 0.000000 0
0.000000 0.000000 0
0.000000 0.000000 0
0.000000 0.000000 0
0.000000 0.000000 0
0.000000 0.000000 0
0.000000 0.000000 0
0.000000 0.000000 0
0.000000 0.000000 0
0.000000 0.000000 0
0.000000 0.000000 0

CELL_DATA 400 
SCALARS pressure float 1 
LOOKUP_TABLE default 
0.242591
0.242641
0.242659
0.242641
0.242608
0.242580
0.242572
0.242582
0.242600
0.242616
0.242624
0.242625
0.242621
0.242616
0.242613
0.242612
0.242612
0.242614
0.242615
0.242616
0.219636
0.219625
0.219604
0.219590
0.219590
0.219602
0.219616
0.219625
0.219626
0.219622
0.219615
0.219610
0.219608
0.219609
0.219611
0.219613
0.219614
0.219616
0.219616
0.219617
0.196618
0.196591
0.196590
0.196607
0.196628
0.196639
0.196636
0.196624
0.196612
0.196603
0.196601
0.196604
0.196608
0.196613
0.196615
0.196616
0.196617
0.196617
0.196617
0.196618
0.173597
0.173598
0.173616
0.173632
0.173638
0.173630
0.173617
0.173605
0.173599
0.173600
0.173605
0.173611
0.173615
0.173617
0.173617
0.173616
0.173616
0.173616
0.173617
0.173618
0.150609
0.150618
0.150623
0.150622
0.150616
0.150610
0.150606
0.150606
0.150609
0.150612
0.150614
0.150615
0.150615
0.150615
0.150615
0.150615
0.150616
0.150616
0.150617
0.150618
0.127625
0.127618
0.127609
0.127605
0.127607
0.127612
0.127617
0.127619
0.127619
0.127616
0.127614
0.127612
0.127612
0.127613
0.127614
0.127616
0.127617
0.127617
0.127618
0.127619
0.104622
0.104610
0.104605
0.104609
0.104617
0.104623
0.104624
0.104621
0.104616
0.104612
0.104610
0.104611
0.104613
0.104615
0.104616
0.104617
0.104618
0.104618
0.104619
0.104619
0.081617
0.081612
0.081614
0.081618
0.081622
0.081622
0.081619
0.081616
0.081613
0.081612
0.081613
0.081614
0.081616
0.081617
0.081618
0.081618
0.081619
0.081619
0.081619
0.081620
0.058620
0.058620
0.058620
0.058618
0.058617
0.058616
0.058616
0.058616
0.058617
0.058617
0.058617
0.058617
0.058617
0.058618
0.058618
0.058619
0.058619
0.058620
0.058620
0.058620
0.035625
0.035623
0.035618
0.035615
0.035615
0.035617
0.035620
0.035621
0.035621
0.035621
0.035619
0.035619
0.035618
0.035619
0.035619
0.035620
0.035620
0.035621
0.035621
0.035621
0.012625
0.012622
0.012618
0.012618
0.012620
0.012622
0.012624
0.012624
0.012623
0.012622
0.012621
0.012620
0.012620
0.012621
0.012621
0.012622
0.012622
0.012622
0.012622
0.012622
-0.010376
-0.010377
-0.010377
-0.010377
-0.010377
-0.010376
-0.010376
-0.010375
-0.010376
-0.010376
-0.010376
-0.010376
-0.010377
-0.010377
-0.010377
-0.010377
-0.010377
-0.010377
-0.010377
-0.010377
-0.033375
-0.033373
-0.033374
-0.033375
-0.033376
-0.033376
-0.033375
-0.033374
-0.033373
-0.033372
-0.033373
-0.033373
-0.033374
-0.033375
-0.033375
-0.033376
-0.033376
-0.033376
-0.033376
-0.033377
-0.056372
-0.056372
-0.056373
-0.056374
-0.056375
-0.056374
-0.056372
-0.056371
-0.056370
-0.056370
-0.056370
-0.056371
-0.056372
-0.056373
-0.056374
-0.056374
-0.056375
-0.056375
-0.056375
-0.056376
-0.079372
-0.079371
-0.079372
-0.079373
-0.079372
-0.079371
-0.079370
-0.079369
-0.079368
-0.079368
-0.079369
-0.079370
-0.079371
-0.079371
-0.079372
-0.079373
-0.079373
-0.079374
-0.079375
-0.079375
-0.102371
-0.102371
-0.102370
-0.102370
-0.102370
-0.102370
-0.102369
-0.102368
-0.102368
-0.102368
-0.102368
-0.102368
-0.102369
-0.102370
-0.102371
-0.102372
-0.102372
-0.102373
-0.102374
-0.102374
-0.125371
-0.125369
-0.125369
-0.125369
-0.125369
-0.125369
-0.125368
-0.125368
-0.125367
-0.125366
-0.125366
-0.125367
-0.125368
-0.125369
-0.125370
-0.125370
-0.125371
-0.125372
-0.125373
-0.125374
-0.148370
-0.148369
-0.148368
-0.148368
-0.148368
-0.148368
-0.148367
-0.148366
-0.148366
-0.148365
-0.148365
-0.148366
-0.148367
-0.148368
-0.148369
-0.148370
-0.148370
-0.148371
-0.148372
-0.148373
-0.171369
-0.171369
-0.171368
-0.171368
-0.171367
-0.171367
-0.171366
-0.171365
-0.171365
-0.171365
-0.171365
-0.171365
-0.171366
-0.171367
-0.171368
-0.171369
-0.171370
-0.171371
-0.171371
-0.171372
-0.194369
-0.194369
-0.194368
-0.194367
-0.194366
-0.194366
-0.194365
-0.194364
-0.194364
-0.194364
-0.194364
-0.194364
-0.194365
-0.194366
-0.194367
-0.194368
-0.194369
-0.194370
-0.194371
-0.194372

SCALARS temperature float 1 
LOOKUP_TABLE default 
0.000027
0.000211
0.000567
0.001066
0.001668
0.002318
0.002953
0.003510
0.003935
0.004191
0.004269
0.004185
0.003975
0.003685
0.003360
0.003041
0.002757
0.002531
0.002375
0.002296
0.000029
0.000227
0.000608
0.001146
0.001795
0.002498
0.003186
0.003787
0.004242
0.004509
0.004578
0.004471
0.004229
0.003902
0.003543
0.003193
0.002886
0.002642
0.002475
0.002391
0.000033
0.000259
0.000696
0.001314
0.002065
0.002882
0.003682
0.004379
0.004897
0.005185
0.005234
0.005072
0.004755
0.004347
0.003911
0.003497
0.003138
0.002858
0.002667
0.002571
0.000040
0.000311
0.000839
0.001590
0.002511
0.003521
0.004516
0.005380
0.006007
0.006327
0.006329
0.006061
0.005605
0.005052
0.004484
0.003959
0.003517
0.003177
0.002948
0.002834
0.000050
0.000387
0.001046
0.001997
0.003177
0.004491
0.005799
0.006932
0.007733
0.008092
0.008000
0.007541
0.006848
0.006057
0.005280
0.004588
0.004021
0.003595
0.003313
0.003174
0.000064
0.000488
0.001327
0.002556
0.004111
0.005876
0.007663
0.009220
0.010290
0.010694
0.010425
0.009637
0.008556
0.007396
0.006309
0.005379
0.004641
0.004100
0.003749
0.003577
0.000080
0.000613
0.001680
0.003272
0.005336
0.007738
0.010232
0.012433
0.013912
0.014363
0.013780
0.012453
0.010771
0.009069
0.007549
0.006304
0.005348
0.004665
0.004230
0.004020
0.000099
0.000755
0.002086
0.004111
0.006813
0.010058
0.013532
0.016661
0.018740
0.019231
0.018138
0.015989
0.013442
0.011003
0.008932
0.007301
0.006091
0.005250
0.004723
0.004471
0.000118
0.000897
0.002497
0.004983
0.008394
0.012633
0.017328
0.021667
0.024542
0.025062
0.023246
0.019987
0.016336
0.013012
0.010315
0.008270
0.006799
0.005799
0.005182
0.004889
0.000134
0.001016
0.002845
0.005735
0.009797
0.015002
0.020942
0.026575
0.030316
0.030857
0.028228
0.023760
0.018964
0.014773
0.011492
0.009080
0.007386
0.006252
0.005560
0.005234
0.000143
0.001087
0.003055
0.006194
0.010665
0.016502
0.023291
0.029838
0.034202
0.034761
0.031555
0.026233
0.020653
0.015891
0.012240
0.009603
0.007771
0.006556
0.005819
0.005471
0.000145
0.001098
0.003084
0.006247
0.010748
0.016620
0.023452
0.030055
0.034475
0.035052
0.031832
0.026485
0.020880
0.016095
0.012420
0.009761
0.007911
0.006682
0.005935
0.005581
0.000139
0.001049
0.002931
0.005897
0.010049
0.015358
0.021422
0.027206
0.031091
0.031688
0.029031
0.024497
0.019632
0.015373
0.012024
0.009551
0.007803
0.006627
0.005906
0.005563
0.000126
0.000953
0.002644
0.005258
0.008822
0.013235
0.018122
0.022673
0.025736
0.026343
0.024505
0.021168
0.017422
0.013996
0.011192
0.009046
0.007488
0.006419
0.005754
0.005434
0.000110
0.000835
0.002296
0.004505
0.007428
0.010917
0.014646
0.018026
0.020312
0.020909
0.019815
0.017592
0.014934
0.012360
0.010145
0.008376
0.007045
0.006108
0.005515
0.005226
0.000095
0.000717
0.001957
0.003791
0.006146
0.008867
0.011679
0.014169
0.015876
0.016450
0.015881
0.014479
0.012664
0.010792
0.009090
0.007668
0.006558
0.005755
0.005236
0.004980
0.000081
0.000616
0.001670
0.003201
0.005120
0.007278
0.009450
0.011347
0.012672
0.013216
0.012966
0.012092
0.010849
0.009480
0.008169
0.007024
0.006100
0.005412
0.004959
0.004734
0.000070
0.000540
0.001456
0.002767
0.004383
0.006167
0.007931
0.009461
0.010553
0.011070
0.010995
0.010431
0.009541
0.008500
0.007455
0.006509
0.005722
0.005123
0.004723
0.004521
0.000064
0.000490
0.001316
0.002489
0.003920
0.005479
0.007008
0.008330
0.009291
0.009787
0.009801
0.009403
0.008710
0.007860
0.006976
0.006154
0.005456
0.004917
0.004552
0.004366
0.000060
0.000465
0.001247
0.002354
0.003696
0.005153
0.006574
0.007804
0.008706
0.009191
0.009241
0.008913
0.008307
0.007544
0.006735
0.005973
0.005318
0.004808
0.004461
0.004285


SCALARS Species_1 float 1 
LOOKUP_TABLE default 
0.000555
0.001661
0.002752
0.003818
0.004850
0.005839
0.006776
0.007654
0.008466
0.009205
0.009869
0.010455
0.010962
0.011394
0.011752
0.012040
0.012263
0.012426
0.012533
0.012585
0.000555
0.001658
0.002747
0.003811
0.004841
0.005829
0.006764
0.007641
0.008451
0.009189
0.009852
0.010437
0.010944
0.011375
0.011733
0.012021
0.012244
0.012407
0.012513
0.012566
0.000553
0.001653
0.002738
0.003799
0.004826
0.005810
0.006743
0.007617
0.008425
0.009161
0.009822
0.010405
0.010911
0.011340
0.011697
0.011985
0.012208
0.012370
0.012476
0.012529
0.000550
0.001645
0.002725
0.003781
0.004803
0.005782
0.006710
0.007580
0.008384
0.009117
0.009775
0.010356
0.010859
0.011287
0.011642
0.011929
0.012151
0.012313
0.012418
0.012471
0.000546
0.001634
0.002706
0.003754
0.004769
0.005742
0.006664
0.007528
0.008326
0.009055
0.009708
0.010285
0.010785
0.011210
0.011563
0.011847
0.012068
0.012229
0.012334
0.012386
0.000541
0.001618
0.002681
0.003719
0.004724
0.005688
0.006601
0.007457
0.008248
0.008970
0.009617
0.010189
0.010684
0.011105
0.011455
0.011737
0.011956
0.012116
0.012220
0.012271
0.000535
0.001599
0.002648
0.003673
0.004666
0.005618
0.006520
0.007365
0.008147
0.008859
0.009499
0.010063
0.010553
0.010968
0.011314
0.011593
0.011809
0.011967
0.012070
0.012121
0.000526
0.001574
0.002607
0.003616
0.004593
0.005530
0.006418
0.007250
0.008020
0.008721
0.009350
0.009906
0.010388
0.010797
0.011137
0.011412
0.011625
0.011781
0.011882
0.011933
0.000516
0.001544
0.002557
0.003547
0.004506
0.005425
0.006296
0.007112
0.007866
0.008554
0.009171
0.009716
0.010189
0.010590
0.010924
0.011193
0.011403
0.011556
0.011656
0.011705
0.000505
0.001509
0.002499
0.003467
0.004404
0.005302
0.006154
0.006951
0.007688
0.008360
0.008963
0.009495
0.009957
0.010349
0.010675
0.010939
0.011144
0.011294
0.011392
0.011440
0.000492
0.001470
0.002435
0.003378
0.004290
0.005165
0.005994
0.006770
0.007488
0.008142
0.008728
0.009246
0.009696
0.010078
0.010396
0.010653
0.010853
0.010999
0.011095
0.011142
0.000477
0.001427
0.002365
0.003280
0.004167
0.005016
0.005820
0.006574
0.007270
0.007904
0.008474
0.008976
0.009413
0.009784
0.010094
0.010343
0.010538
0.010680
0.010773
0.010819
0.000462
0.001383
0.002291
0.003178
0.004037
0.004859
0.005638
0.006368
0.007042
0.007656
0.008207
0.008694
0.009117
0.009477
0.009777
0.010020
0.010208
0.010346
0.010437
0.010481
0.000447
0.001338
0.002217
0.003075
0.003905
0.004701
0.005454
0.006160
0.006811
0.007405
0.007939
0.008410
0.008819
0.009168
0.009458
0.009693
0.009876
0.010010
0.010098
0.010141
0.000433
0.001295
0.002145
0.002975
0.003778
0.004548
0.005276
0.005958
0.006589
0.007163
0.007679
0.008135
0.008532
0.008869
0.009151
0.009379
0.009556
0.009686
0.009771
0.009813
0.000419
0.001254
0.002078
0.002882
0.003661
0.004406
0.005112
0.005773
0.006384
0.006940
0.007441
0.007883
0.008267
0.008595
0.008868
0.009089
0.009262
0.009388
0.009470
0.009511
0.000408
0.001220
0.002020
0.002802
0.003559
0.004283
0.004970
0.005612
0.006206
0.006747
0.007234
0.007664
0.008038
0.008357
0.008623
0.008839
0.009007
0.009129
0.009210
0.009250
0.000398
0.001192
0.001974
0.002738
0.003477
0.004185
0.004856
0.005483
0.006064
0.006593
0.007069
0.007490
0.007856
0.008168
0.008428
0.008639
0.008803
0.008924
0.009002
0.009041
0.000392
0.001172
0.001942
0.002693
0.003421
0.004117
0.004777
0.005394
0.005965
0.006486
0.006954
0.007368
0.007729
0.008036
0.008292
0.008500
0.008662
0.008780
0.008858
0.008896
0.000389
0.001162
0.001925
0.002671
0.003392
0.004082
0.004736
0.005348
0.005914
0.006431
0.006895
0.007306
0.007664
0.007969
0.008223
0.008429
0.008589
0.008707
0.008784
0.008822


SCALARS Species_2 float 1 
LOOKUP_TABLE default 
0.000264
0.000783
0.001277
0.001734
0.002139
0.002484
0.002763
0.002973
0.003114
0.003190
0.003209
0.003179
0.003110
0.003016
0.002907
0.002795
0.002692
0.002606
0.002545
0.002513
0.000268
0.000795
0.001298
0.001762
0.002174
0.002524
0.002808
0.003021
0.003165
0.003243
0.003263
0.003232
0.003163
0.003068
0.002958
0.002845
0.002740
0.002653
0.002591
0.002558
0.000277
0.000821
0.001340
0.001818
0.002243
0.002605
0.002898
0.003118
0.003267
0.003348
0.003368
0.003337
0.003266
0.003168
0.003055
0.002939
0.002831
0.002742
0.002677
0.002644
0.000289
0.000858