# vtk DataFile Version 2.0
generated by CFD-lab course output (written by Tobias Neckel) 
ASCII

DATASET STRUCTURED_GRID
DIMENSIONS  21 21 1 
POINTS 441 float

0.000000 0.000000 0
0.100000 0.000000 0
0.200000 0.000000 0
0.300000 0.000000 0
0.400000 0.000000 0
0.500000 0.000000 0
0.600000 0.000000 0
0.700000 0.000000 0
0.800000 0.000000 0
0.900000 0.000000 0
1.000000 0.000000 0
1.100000 0.000000 0
1.200000 0.000000 0
1.300000 0.000000 0
1.400000 0.000000 0
1.500000 0.000000 0
1.600000 0.000000 0
1.700000 0.000000 0
1.800000 0.000000 0
1.900000 0.000000 0
2.000000 0.000000 0
0.000000 0.100000 0
0.100000 0.100000 0
0.200000 0.100000 0
0.300000 0.100000 0
0.400000 0.100000 0
0.500000 0.100000 0
0.600000 0.100000 0
0.700000 0.100000 0
0.800000 0.100000 0
0.900000 0.100000 0
1.000000 0.100000 0
1.100000 0.100000 0
1.200000 0.100000 0
1.300000 0.100000 0
1.400000 0.100000 0
1.500000 0.100000 0
1.600000 0.100000 0
1.700000 0.100000 0
1.800000 0.100000 0
1.900000 0.100000 0
2.000000 0.100000 0
0.000000 0.200000 0
0.100000 0.200000 0
0.200000 0.200000 0
0.300000 0.200000 0
0.400000 0.200000 0
0.500000 0.200000 0
0.600000 0.200000 0
0.700000 0.200000 0
0.800000 0.200000 0
0.900000 0.200000 0
1.000000 0.200000 0
1.100000 0.200000 0
1.200000 0.200000 0
1.300000 0.200000 0
1.400000 0.200000 0
1.500000 0.200000 0
1.600000 0.200000 0
1.700000 0.200000 0
1.800000 0.200000 0
1.900000 0.200000 0
2.000000 0.200000 0
0.000000 0.300000 0
0.100000 0.300000 0
0.200000 0.300000 0
0.300000 0.300000 0
0.400000 0.300000 0
0.500000 0.300000 0
0.600000 0.300000 0
0.700000 0.300000 0
0.800000 0.300000 0
0.900000 0.300000 0
1.000000 0.300000 0
1.100000 0.300000 0
1.200000 0.300000 0
1.300000 0.300000 0
1.400000 0.300000 0
1.500000 0.300000 0
1.600000 0.300000 0
1.700000 0.300000 0
1.800000 0.300000 0
1.900000 0.300000 0
2.000000 0.300000 0
0.000000 0.400000 0
0.100000 0.400000 0
0.200000 0.400000 0
0.300000 0.400000 0
0.400000 0.400000 0
0.500000 0.400000 0
0.600000 0.400000 0
0.700000 0.400000 0
0.800000 0.400000 0
0.900000 0.400000 0
1.000000 0.400000 0
1.100000 0.400000 0
1.200000 0.400000 0
1.300000 0.400000 0
1.400000 0.400000 0
1.500000 0.400000 0
1.600000 0.400000 0
1.700000 0.400000 0
1.800000 0.400000 0
1.900000 0.400000 0
2.000000 0.400000 0
0.000000 0.500000 0
0.100000 0.500000 0
0.200000 0.500000 0
0.300000 0.500000 0
0.400000 0.500000 0
0.500000 0.500000 0
0.600000 0.500000 0
0.700000 0.500000 0
0.800000 0.500000 0
0.900000 0.500000 0
1.000000 0.500000 0
1.100000 0.500000 0
1.200000 0.500000 0
1.300000 0.500000 0
1.400000 0.500000 0
1.500000 0.500000 0
1.600000 0.500000 0
1.700000 0.500000 0
1.800000 0.500000 0
1.900000 0.500000 0
2.000000 0.500000 0
0.000000 0.600000 0
0.100000 0.600000 0
0.200000 0.600000 0
0.300000 0.600000 0
0.400000 0.600000 0
0.500000 0.600000 0
0.600000 0.600000 0
0.700000 0.600000 0
0.800000 0.600000 0
0.900000 0.600000 0
1.000000 0.600000 0
1.100000 0.600000 0
1.200000 0.600000 0
1.300000 0.600000 0
1.400000 0.600000 0
1.500000 0.600000 0
1.600000 0.600000 0
1.700000 0.600000 0
1.800000 0.600000 0
1.900000 0.600000 0
2.000000 0.600000 0
0.000000 0.700000 0
0.100000 0.700000 0
0.200000 0.700000 0
0.300000 0.700000 0
0.400000 0.700000 0
0.500000 0.700000 0
0.600000 0.700000 0
0.700000 0.700000 0
0.800000 0.700000 0
0.900000 0.700000 0
1.000000 0.700000 0
1.100000 0.700000 0
1.200000 0.700000 0
1.300000 0.700000 0
1.400000 0.700000 0
1.500000 0.700000 0
1.600000 0.700000 0
1.700000 0.700000 0
1.800000 0.700000 0
1.900000 0.700000 0
2.000000 0.700000 0
0.000000 0.800000 0
0.100000 0.800000 0
0.200000 0.800000 0
0.300000 0.800000 0
0.400000 0.800000 0
0.500000 0.800000 0
0.600000 0.800000 0
0.700000 0.800000 0
0.800000 0.800000 0
0.900000 0.800000 0
1.000000 0.800000 0
1.100000 0.800000 0
1.200000 0.800000 0
1.300000 0.800000 0
1.400000 0.800000 0
1.500000 0.800000 0
1.600000 0.800000 0
1.700000 0.800000 0
1.800000 0.800000 0
1.900000 0.800000 0
2.000000 0.800000 0
0.000000 0.900000 0
0.100000 0.900000 0
0.200000 0.900000 0
0.300000 0.900000 0
0.400000 0.900000 0
0.500000 0.900000 0
0.600000 0.900000 0
0.700000 0.900000 0
0.800000 0.900000 0
0.900000 0.900000 0
1.000000 0.900000 0
1.100000 0.900000 0
1.200000 0.900000 0
1.300000 0.900000 0
1.400000 0.900000 0
1.500000 0.900000 0
1.600000 0.900000 0
1.700000 0.900000 0
1.800000 0.900000 0
1.900000 0.900000 0
2.000000 0.900000 0
0.000000 1.000000 0
0.100000 1.000000 0
0.200000 1.000000 0
0.300000 1.000000 0
0.400000 1.000000 0
0.500000 1.000000 0
0.600000 1.000000 0
0.700000 1.000000 0
0.800000 1.000000 0
0.900000 1.000000 0
1.000000 1.000000 0
1.100000 1.000000 0
1.200000 1.000000 0
1.300000 1.000000 0
1.400000 1.000000 0
1.500000 1.000000 0
1.600000 1.000000 0
1.700000 1.000000 0
1.800000 1.000000 0
1.900000 1.000000 0
2.000000 1.000000 0
0.000000 1.100000 0
0.100000 1.100000 0
0.200000 1.100000 0
0.300000 1.100000 0
0.400000 1.100000 0
0.500000 1.100000 0
0.600000 1.100000 0
0.700000 1.100000 0
0.800000 1.100000 0
0.900000 1.100000 0
1.000000 1.100000 0
1.100000 1.100000 0
1.200000 1.100000 0
1.300000 1.100000 0
1.400000 1.100000 0
1.500000 1.100000 0
1.600000 1.100000 0
1.700000 1.100000 0
1.800000 1.100000 0
1.900000 1.100000 0
2.000000 1.100000 0
0.000000 1.200000 0
0.100000 1.200000 0
0.200000 1.200000 0
0.300000 1.200000 0
0.400000 1.200000 0
0.500000 1.200000 0
0.600000 1.200000 0
0.700000 1.200000 0
0.800000 1.200000 0
0.900000 1.200000 0
1.000000 1.200000 0
1.100000 1.200000 0
1.200000 1.200000 0
1.300000 1.200000 0
1.400000 1.200000 0
1.500000 1.200000 0
1.600000 1.200000 0
1.700000 1.200000 0
1.800000 1.200000 0
1.900000 1.200000 0
2.000000 1.200000 0
0.000000 1.300000 0
0.100000 1.300000 0
0.200000 1.300000 0
0.300000 1.300000 0
0.400000 1.300000 0
0.500000 1.300000 0
0.600000 1.300000 0
0.700000 1.300000 0
0.800000 1.300000 0
0.900000 1.300000 0
1.000000 1.300000 0
1.100000 1.300000 0
1.200000 1.300000 0
1.300000 1.300000 0
1.400000 1.300000 0
1.500000 1.300000 0
1.600000 1.300000 0
1.700000 1.300000 0
1.800000 1.300000 0
1.900000 1.300000 0
2.000000 1.300000 0
0.000000 1.400000 0
0.100000 1.400000 0
0.200000 1.400000 0
0.300000 1.400000 0
0.400000 1.400000 0
0.500000 1.400000 0
0.600000 1.400000 0
0.700000 1.400000 0
0.800000 1.400000 0
0.900000 1.400000 0
1.000000 1.400000 0
1.100000 1.400000 0
1.200000 1.400000 0
1.300000 1.400000 0
1.400000 1.400000 0
1.500000 1.400000 0
1.600000 1.400000 0
1.700000 1.400000 0
1.800000 1.400000 0
1.900000 1.400000 0
2.000000 1.400000 0
0.000000 1.500000 0
0.100000 1.500000 0
0.200000 1.500000 0
0.300000 1.500000 0
0.400000 1.500000 0
0.500000 1.500000 0
0.600000 1.500000 0
0.700000 1.500000 0
0.800000 1.500000 0
0.900000 1.500000 0
1.000000 1.500000 0
1.100000 1.500000 0
1.200000 1.500000 0
1.300000 1.500000 0
1.400000 1.500000 0
1.500000 1.500000 0
1.600000 1.500000 0
1.700000 1.500000 0
1.800000 1.500000 0
1.900000 1.500000 0
2.000000 1.500000 0
0.000000 1.600000 0
0.100000 1.600000 0
0.200000 1.600000 0
0.300000 1.600000 0
0.400000 1.600000 0
0.500000 1.600000 0
0.600000 1.600000 0
0.700000 1.600000 0
0.800000 1.600000 0
0.900000 1.600000 0
1.000000 1.600000 0
1.100000 1.600000 0
1.200000 1.600000 0
1.300000 1.600000 0
1.400000 1.600000 0
1.500000 1.600000 0
1.600000 1.600000 0
1.700000 1.600000 0
1.800000 1.600000 0
1.900000 1.600000 0
2.000000 1.600000 0
0.000000 1.700000 0
0.100000 1.700000 0
0.200000 1.700000 0
0.300000 1.700000 0
0.400000 1.700000 0
0.500000 1.700000 0
0.600000 1.700000 0
0.700000 1.700000 0
0.800000 1.700000 0
0.900000 1.700000 0
1.000000 1.700000 0
1.100000 1.700000 0
1.200000 1.700000 0
1.300000 1.700000 0
1.400000 1.700000 0
1.500000 1.700000 0
1.600000 1.700000 0
1.700000 1.700000 0
1.800000 1.700000 0
1.900000 1.700000 0
2.000000 1.700000 0
0.000000 1.800000 0
0.100000 1.800000 0
0.200000 1.800000 0
0.300000 1.800000 0
0.400000 1.800000 0
0.500000 1.800000 0
0.600000 1.800000 0
0.700000 1.800000 0
0.800000 1.800000 0
0.900000 1.800000 0
1.000000 1.800000 0
1.100000 1.800000 0
1.200000 1.800000 0
1.300000 1.800000 0
1.400000 1.800000 0
1.500000 1.800000 0
1.600000 1.800000 0
1.700000 1.800000 0
1.800000 1.800000 0
1.900000 1.800000 0
2.000000 1.800000 0
0.000000 1.900000 0
0.100000 1.900000 0
0.200000 1.900000 0
0.300000 1.900000 0
0.400000 1.900000 0
0.500000 1.900000 0
0.600000 1.900000 0
0.700000 1.900000 0
0.800000 1.900000 0
0.900000 1.900000 0
1.000000 1.900000 0
1.100000 1.900000 0
1.200000 1.900000 0
1.300000 1.900000 0
1.400000 1.900000 0
1.500000 1.900000 0
1.600000 1.900000 0
1.700000 1.900000 0
1.800000 1.900000 0
1.900000 1.900000 0
2.000000 1.900000 0
0.000000 2.000000 0
0.100000 2.000000 0
0.200000 2.000000 0
0.300000 2.000000 0
0.400000 2.000000 0
0.500000 2.000000 0
0.600000 2.000000 0
0.700000 2.000000 0
0.800000 2.000000 0
0.900000 2.000000 0
1.000000 2.000000 0
1.100000 2.000000 0
1.200000 2.000000 0
1.300000 2.000000 0
1.400000 2.000000 0
1.500000 2.000000 0
1.600000 2.000000 0
1.700000 2.000000 0
1.800000 2.000000 0
1.900000 2.000000 0
2.000000 2.000000 0
POINT_DATA 441 

VECTORS velocity float
0.000000 0.000000 0
-0.000002 0.000000 0
-0.000000 0.000000 0
0.000000 0.000000 0
-0.000000 0.000000 0
-0.000000 0.000000 0
-0.000000 0.000000 0
-0.000001 0.000000 0
-0.000001 0.000000 0
-0.000000 0.000000 0
-0.000000 0.000000 0
-0.000000 0.000000 0
-0.000000 0.000000 0
-0.000000 0.000000 0
-0.000000 0.000000 0
-0.000000 0.000000 0
-0.000000 0.000000 0
-0.000000 0.000000 0
-0.000000 0.000000 0
-0.000000 0.000000 0
-0.000000 0.000000 0
0.000000 -0.000003 0
-0.000004 -0.000005 0
-0.000003 -0.000005 0
-0.000003 -0.000005 0
-0.000003 -0.000005 0
-0.000003 -0.000006 0
-0.000003 -0.000006 0
-0.000002 -0.000005 0
-0.000002 -0.000004 0
-0.000002 -0.000004 0
-0.000001 -0.000004 0
-0.000001 -0.000004 0
-0.000001 -0.000004 0
-0.000001 -0.000004 0
-0.000001 -0.000004 0
-0.000001 -0.000004 0
-0.000000 -0.000004 0
-0.000000 -0.000004 0
-0.000000 -0.000004 0
0.000000 -0.000004 0
0.000000 -0.000004 0
0.000000 0.000001 0
-0.000002 -0.000007 0
-0.000004 -0.000006 0
-0.000003 -0.000006 0
-0.000004 -0.000007 0
-0.000003 -0.000007 0
-0.000002 -0.000006 0
-0.000002 -0.000005 0
-0.000002 -0.000005 0
-0.000001 -0.000005 0
-0.000001 -0.000005 0
-0.000001 -0.000005 0
-0.000001 -0.000005 0
-0.000001 -0.000005 0
-0.000001 -0.000005 0
-0.000000 -0.000005 0
-0.000000 -0.000005 0
-0.000000 -0.000005 0
-0.000000 -0.000005 0
0.000000 -0.000005 0
0.000000 -0.000005 0
0.000000 -0.000001 0
-0.000003 -0.000008 0
-0.000003 -0.000008 0
-0.000004 -0.000009 0
-0.000003 -0.000009 0
-0.000002 -0.000007 0
-0.000001 -0.000006 0
-0.000001 -0.000006 0
-0.000002 -0.000006 0
-0.000002 -0.000006 0
-0.000001 -0.000006 0
-0.000001 -0.000006 0
-0.000001 -0.000006 0
-0.000001 -0.000006 0
-0.000001 -0.000006 0
-0.000000 -0.000006 0
-0.000000 -0.000006 0
-0.000000 -0.000006 0
-0.000000 -0.000006 0
0.000000 -0.000006 0
0.000000 -0.000005 0
0.000000 -0.000000 0
-0.000003 -0.000009 0
-0.000004 -0.000010 0
-0.000003 -0.000009 0
-0.000002 -0.000007 0
-0.000001 -0.000007 0
-0.000002 -0.000007 0
-0.000002 -0.000007 0
-0.000002 -0.000007 0
-0.000001 -0.000007 0
-0.000001 -0.000007 0
-0.000001 -0.000006 0
-0.000001 -0.000006 0
-0.000001 -0.000006 0
-0.000001 -0.000006 0
-0.000000 -0.000006 0
-0.000000 -0.000006 0
-0.000000 -0.000006 0
-0.000000 -0.000006 0
0.000000 -0.000006 0
0.000000 -0.000006 0
0.000000 0.000000 0
-0.000005 -0.000011 0
-0.000002 -0.000010 0
-0.000002 -0.000008 0
-0.000001 -0.000008 0
-0.000002 -0.000008 0
-0.000002 -0.000008 0
-0.000001 -0.000008 0
-0.000001 -0.000007 0
-0.000001 -0.000007 0
-0.000001 -0.000007 0
-0.000001 -0.000007 0
-0.000001 -0.000007 0
-0.000001 -0.000007 0
-0.000000 -0.000007 0
-0.000000 -0.000007 0
-0.000000 -0.000007 0
-0.000000 -0.000007 0
-0.000000 -0.000007 0
0.000000 -0.000007 0
0.000000 -0.000006 0
0.000000 -0.000003 0
-0.000002 -0.000010 0
-0.000001 -0.000008 0
-0.000001 -0.000009 0
-0.000002 -0.000008 0
-0.000001 -0.000010 0
-0.000001 -0.000008 0
-0.000001 -0.000008 0
-0.000001 -0.000008 0
-0.000001 -0.000007 0
-0.000001 -0.000007 0
-0.000001 -0.000007 0
-0.000001 -0.000007 0
-0.000000 -0.000007 0
-0.000000 -0.000007 0
-0.000000 -0.000007 0
-0.000000 -0.000007 0
-0.000000 -0.000007 0
-0.000000 -0.000007 0
-0.000000 -0.000007 0
0.000000 -0.000006 0
0.000000 0.000000 0
-0.000000 -0.000010 0
-0.000001 -0.000010 0
-0.000001 -0.000010 0
-0.000002 -0.000011 0
-0.000001 -0.000009 0
-0.000001 -0.000009 0
-0.000001 -0.000008 0
-0.000001 -0.000008 0
-0.000001 -0.000008 0
-0.000001 -0.000008 0
-0.000001 -0.000007 0
-0.000000 -0.000007 0
-0.000000 -0.000007 0
-0.000000 -0.000007 0
-0.000000 -0.000007 0
-0.000000 -0.000007 0
-0.000000 -0.000007 0
-0.000000 -0.000007 0
-0.000000 -0.000007 0
0.000000 -0.000007 0
0.000000 -0.000002 0
-0.000000 -0.000010 0
-0.000001 -0.000009 0
-0.000002 -0.000010 0
-0.000000 -0.000008 0
-0.000001 -0.000009 0
-0.000001 -0.000008 0
-0.000000 -0.000008 0
-0.000001 -0.000008 0
-0.000000 -0.000008 0
-0.000000 -0.000008 0
-0.000000 -0.000007 0
-0.000000 -0.000007 0
-0.000000 -0.000007 0
-0.000000 -0.000007 0
-0.000000 -0.000007 0
-0.000000 -0.000007 0
-0.000000 -0.000007 0
-0.000000 -0.000007 0
-0.000000 -0.000007 0
-0.000000 -0.000007 0
0.000000 0.000000 0
-0.000000 -0.000010 0
-0.000001 -0.000011 0
-0.000000 -0.000009 0
-0.000000 -0.000009 0
-0.000000 -0.000008 0
-0.000000 -0.000009 0
-0.000000 -0.000008 0
-0.000000 -0.000008 0
-0.000000 -0.000008 0
-0.000000 -0.000007 0
-0.000000 -0.000007 0
-0.000000 -0.000007 0
-0.000000 -0.000007 0
-0.000000 -0.000007 0
-0.000000 -0.000007 0
-0.000000 -0.000007 0
-0.000000 -0.000007 0
-0.000000 -0.000007 0
-0.000000 -0.000007 0
-0.000000 -0.000006 0
0.000000 -0.000000 0
-0.000002 -0.000010 0
0.000001 -0.000009 0
-0.000001 -0.000009 0
0.000000 -0.000008 0
-0.000000 -0.000008 0
-0.000000 -0.000008 0
-0.000000 -0.000008 0
-0.000000 -0.000007 0
-0.000000 -0.000007 0
-0.000000 -0.000007 0
-0.000000 -0.000007 0
-0.000000 -0.000007 0
-0.000000 -0.000007 0
-0.000000 -0.000007 0
-0.000000 -0.000007 0
-0.000000 -0.000007 0
-0.000000 -0.000007 0
-0.000000 -0.000007 0
-0.000000 -0.000007 0
-0.000000 -0.000006 0
0.000000 -0.000002 0
0.000001 -0.000009 0
0.000000 -0.000009 0
0.000001 -0.000009 0
-0.000000 -0.000008 0
0.000000 -0.000008 0
0.000000 -0.000008 0
0.000000 -0.000007 0
0.000000 -0.000007 0
0.000000 -0.000007 0
0.000000 -0.000007 0
0.000000 -0.000007 0
0.000000 -0.000006 0
-0.000000 -0.000006 0
-0.000000 -0.000006 0
-0.000000 -0.000006 0
-0.000000 -0.000006 0
-0.000000 -0.000006 0
-0.000000 -0.000006 0
-0.000000 -0.000006 0
-0.000000 -0.000006 0
0.000000 0.000000 0
0.000001 -0.000009 0
0.000001 -0.000008 0
0.000001 -0.000008 0
0.000001 -0.000007 0
0.000000 -0.000007 0
0.000001 -0.000007 0
0.000000 -0.000007 0
0.000000 -0.000006 0
0.000000 -0.000006 0
0.000000 -0.000006 0
0.000000 -0.000006 0
0.000000 -0.000006 0
0.000000 -0.000006 0
0.000000 -0.000006 0
0.000000 -0.000006 0
-0.000000 -0.000006 0
-0.000000 -0.000006 0
-0.000000 -0.000006 0
-0.000000 -0.000006 0
-0.000000 -0.000005 0
0.000000 -0.000001 0
0.000002 -0.000007 0
0.000001 -0.000007 0
0.000001 -0.000007 0
0.000001 -0.000007 0
0.000001 -0.000006 0
0.000001 -0.000006 0
0.000001 -0.000006 0
0.000000 -0.000006 0
0.000000 -0.000006 0
0.000000 -0.000006 0
0.000000 -0.000005 0
0.000000 -0.000005 0
0.000000 -0.000005 0
0.000000 -0.000005 0
0.000000 -0.000005 0
0.000000 -0.000005 0
-0.000000 -0.000005 0
-0.000000 -0.000005 0
-0.000000 -0.000005 0
-0.000000 -0.000005 0
0.000000 0.000000 0
0.000002 -0.000007 0
0.000001 -0.000006 0
0.000001 -0.000006 0
0.000001 -0.000006 0
0.000001 -0.000006 0
0.000001 -0.000005 0
0.000001 -0.000005 0
0.000001 -0.000005 0
0.000001 -0.000005 0
0.000000 -0.000005 0
0.000000 -0.000005 0
0.000000 -0.000005 0
0.000000 -0.000005 0
0.000000 -0.000005 0
0.000000 -0.000005 0
0.000000 -0.000004 0
-0.000000 -0.000004 0
-0.000000 -0.000004 0
-0.000000 -0.000004 0
-0.000000 -0.000004 0
0.000000 -0.000001 0
0.000002 -0.000006 0
0.000002 -0.000006 0
0.000001 -0.000005 0
0.000001 -0.000005 0
0.000001 -0.000005 0
0.000001 -0.000005 0
0.000001 -0.000004 0
0.000001 -0.000004 0
0.000001 -0.000004 0
0.000001 -0.000004 0
0.000000 -0.000004 0
0.000000 -0.000004 0
0.000000 -0.000004 0
0.000000 -0.000004 0
0.000000 -0.000004 0
0.000000 -0.000004 0
-0.000000 -0.000004 0
-0.000000 -0.000004 0
-0.000000 -0.000004 0
-0.000000 -0.000004 0
0.000000 -0.000000 0
0.000002 -0.000005 0
0.000002 -0.000004 0
0.000002 -0.000004 0
0.000001 -0.000004 0
0.000001 -0.000004 0
0.000001 -0.000004 0
0.000001 -0.000004 0
0.000001 -0.000003 0
0.000001 -0.000003 0
0.000001 -0.000003 0
0.000001 -0.000003 0
0.000000 -0.000003 0
0.000000 -0.000003 0
0.000000 -0.000003 0
0.000000 -0.000003 0
0.000000 -0.000003 0
-0.000000 -0.000003 0
-0.000000 -0.000003 0
-0.000000 -0.000003 0
-0.000000 -0.000003 0
0.000000 -0.000000 0
0.000002 -0.000003 0
0.000002 -0.000003 0
0.000002 -0.000003 0
0.000002 -0.000003 0
0.000001 -0.000003 0
0.000001 -0.000003 0
0.000001 -0.000003 0
0.000001 -0.000003 0
0.000001 -0.000003 0
0.000001 -0.000002 0
0.000001 -0.000002 0
0.000000 -0.000002 0
0.000000 -0.000002 0
0.000000 -0.000002 0
0.000000 -0.000002 0
0.000000 -0.000002 0
0.000000 -0.000002 0
-0.000000 -0.000002 0
-0.000000 -0.000002 0
-0.000000 -0.000002 0
0.000000 -0.000000 0
0.000002 -0.000002 0
0.000002 -0.000002 0
0.000002 -0.000002 0
0.000002 -0.000002 0
0.000002 -0.000002 0
0.000001 -0.000002 0
0.000001 -0.000002 0
0.000001 -0.000002 0
0.000001 -0.000002 0
0.000001 -0.000002 0
0.000001 -0.000002 0
0.000001 -0.000002 0
0.000000 -0.000002 0
0.000000 -0.000002 0
0.000000 -0.000002 0
0.000000 -0.000002 0
0.000000 -0.000001 0
-0.000000 -0.000001 0
-0.000000 -0.000002 0
-0.000000 -0.000001 0
0.000000 -0.000000 0
0.000003 -0.000001 0
0.000002 -0.000001 0
0.000002 -0.000001 0
0.000002 -0.000001 0
0.000002 -0.000001 0
0.000001 -0.000001 0
0.000001 -0.000001 0
0.000001 -0.000001 0
0.000001 -0.000001 0
0.000001 -0.000001 0
0.000001 -0.000001 0
0.000001 -0.000001 0
0.000000 -0.000001 0
0.000000 -0.000001 0
0.000000 -0.000001 0
0.000000 -0.000001 0
0.000000 -0.000001 0
-0.000000 -0.000001 0
-0.000000 -0.000001 0
-0.000000 -0.000001 0
0.000000 0.000000 0
0.000000 0.000000 0
0.000000 0.000000 0
0.000000 0.000000 0
0.000000 0.000000 0
0.000000 0.000000 0
0.000000 0.000000 0
0.000000 0.000000 0
0.000000 0.000000 0
0.000000 0.000000 0
0.000000 0.000000 0
0.000000 0.000000 0
0.000000 0.000000 0
0.000000 0.000000 0
0.000000 0.000000 0
0.000000 0.000000 0
0.000000 0.000000 0
0.000000 0.000000 0
0.000000 0.000000 0
0.000000 0.000000 0
0.000000 0.000000 0

CELL_DATA 400 
SCALARS pressure float 1 
LOOKUP_TABLE default 
0.242588
0.242596
0.242596
0.242595
0.242595
0.242596
0.242597
0.242600
0.242602
0.242603
0.242603
0.242604
0.242604
0.242604
0.242605
0.242605
0.242606
0.242606
0.242607
0.242607
0.219599
0.219595
0.219593
0.219596
0.219596
0.219598
0.219602
0.219602
0.219603
0.219603
0.219603
0.219604
0.219605
0.219606
0.219606
0.219607
0.219607
0.219607
0.219608
0.219608
0.196595
0.196594
0.196598
0.196597
0.196603
0.196604
0.196604
0.196604
0.196604
0.196604
0.196605
0.196606
0.196607
0.196607
0.196608
0.196608
0.196608
0.196609
0.196609
0.196609
0.173599
0.173597
0.173598
0.173605
0.173606
0.173606
0.173605
0.173605
0.173605
0.173606
0.173608
0.173608
0.173609
0.173609
0.173609
0.173610
0.173610
0.173610
0.173611
0.173611
0.150600
0.150600
0.150607
0.150608
0.150607
0.150607
0.150605
0.150606
0.150608
0.150609
0.150610
0.150610
0.150610
0.150611
0.150611
0.150611
0.150612
0.150612
0.150612
0.150612
0.127600
0.127613
0.127607
0.127611
0.127608
0.127606
0.127609
0.127610
0.127611
0.127612
0.127612
0.127612
0.127612
0.127613
0.127613
0.127613
0.127614
0.127614
0.127614
0.127614
0.104614
0.104611
0.104613
0.104609
0.104608
0.104612
0.104612
0.104613
0.104613
0.104613
0.104614
0.104614
0.104614
0.104615
0.104615
0.104615
0.104615
0.104616
0.104616
0.104616
0.081612
0.081617
0.081613
0.081611
0.081617
0.081614
0.081617
0.081616
0.081615
0.081616
0.081616
0.081616
0.081617
0.081617
0.081617
0.081617
0.081617
0.081618
0.081618
0.081618
0.058621
0.058613
0.058614
0.058619
0.058617
0.058620
0.058617
0.058618
0.058618
0.058618
0.058619
0.058619
0.058619
0.058619
0.058619
0.058619
0.058619
0.058619
0.058619
0.058620
0.035620
0.035615
0.035624
0.035619
0.035623
0.035620
0.035621
0.035621
0.035621
0.035621
0.035621
0.035621
0.035621
0.035621
0.035621
0.035621
0.035621
0.035621
0.035621
0.035621
0.012620
0.012627
0.012621
0.012627
0.012621
0.012624
0.012623
0.012623
0.012623
0.012623
0.012623
0.012623
0.012623
0.012623
0.012623
0.012623
0.012623
0.012623
0.012623
0.012623
-0.010372
-0.010375
-0.010371
-0.010376
-0.010374
-0.010375
-0.010374
-0.010375
-0.010375
-0.010375
-0.010375
-0.010375
-0.010375
-0.010375
-0.010375
-0.010375
-0.010375
-0.010375
-0.010375
-0.010375
-0.033372
-0.033367
-0.033373
-0.033371
-0.033372
-0.033372
-0.033372
-0.033372
-0.033373
-0.033373
-0.033373
-0.033373
-0.033373
-0.033373
-0.033374
-0.033374
-0.033374
-0.033374
-0.033374
-0.033374
-0.056366
-0.056370
-0.056368
-0.056369
-0.056369
-0.056370
-0.056370
-0.056371
-0.056371
-0.056371
-0.056371
-0.056371
-0.056372
-0.056372
-0.056372
-0.056372
-0.056372
-0.056372
-0.056373
-0.056373
-0.079366
-0.079365
-0.079366
-0.079367
-0.079367
-0.079368
-0.079369
-0.079369
-0.079369
-0.079370
-0.079370
-0.079370
-0.079370
-0.079371
-0.079371
-0.079371
-0.079371
-0.079371
-0.079371
-0.079372
-0.102363
-0.102365
-0.102364
-0.102365
-0.102366
-0.102366
-0.102367
-0.102367
-0.102368
-0.102368
-0.102369
-0.102369
-0.102369
-0.102369
-0.102370
-0.102370
-0.102370
-0.102370
-0.102370
-0.102371
-0.125362
-0.125363
-0.125363
-0.125364
-0.125365
-0.125365
-0.125366
-0.125366
-0.125367
-0.125367
-0.125368
-0.125368
-0.125368
-0.125368
-0.125369
-0.125369
-0.125369
-0.125369
-0.125370
-0.125370
-0.148360
-0.148362
-0.148362
-0.148363
-0.148364
-0.148364
-0.148365
-0.148365
-0.148366
-0.148366
-0.148367
-0.148367
-0.148368
-0.148368
-0.148368
-0.148368
-0.148369
-0.148369
-0.148369
-0.148369
-0.171360
-0.171361
-0.171362
-0.171362
-0.171363
-0.171364
-0.171364
-0.171365
-0.171365
-0.171366
-0.171366
-0.171367
-0.171367
-0.171367
-0.171368
-0.171368
-0.171368
-0.171368
-0.171369
-0.171369
-0.194360
-0.194360
-0.194361
-0.194362
-0.194363
-0.194364
-0.194364
-0.194365
-0.194365
-0.194366
-0.194366
-0.194366
-0.194367
-0.194367
-0.194367
-0.194368
-0.194368
-0.194368
-0.194368
-0.194369

SCALARS temperature float 1 
LOOKUP_TABLE default 
0.000000
0.000000
0.000000
0.000000
0.000000
0.000000
0.000000
0.000000
0.000000
0.000000
0.000000
0.000000
0.000000
0.000000
0.000000
0.000000
0.000000
0.000000
0.000000
0.000000
0.000000
0.000000
0.000000
0.000000
0.000000
0.000000
0.000000
0.000000
0.000000
0.000000
0.000000
0.000000
0.000000
0.000000
0.000000
0.000000
0.000000
0.000000
0.000000
0.000000
0.000000
0.000000
0.000000
0.000000
0.000000
0.000000
0.000000
0.000000
0.000000
0.000000
0.000000
0.000000
0.000000
0.000000
0.000000
0.000000
0.000000
0.000000
0.000000
0.000000
0.000000
0.000000
0.000000
0.000000
0.000000
0.000000
0.000000
0.000000
0.000000
0.000000
0.000000
0.000000
0.000000
0.000000
0.000000
0.000000
0.000000
0.000000
0.000000
0.000000
0.000000
0.000000
0.000000
0.000000
0.000000
0.000000
0.000000
0.000000
0.000000
0.000000
0.000000
0.000000
0.000000
0.000000
0.000000
0.000000
0.000000
0.000000
0.000000
0.000000
0.000000
0.000000
0.000000
0.000000
0.000000
0.000000
0.000000
0.000000
0.000000
0.000000
0.000000
0.000000
0.000000
0.000000
0.000000
0.000000
0.000000
0.000000
0.000000
0.000000
0.000000
0.000000
0.000000
0.000000
0.000000
0.000000
0.000000
0.000000
0.000000
0.000000
0.000000
0.000000
0.000000
0.000000
0.000000
0.000000
0.000000
0.000000
0.000000
0.000000
0.000000
0.000000
0.000000
0.000000
0.000000
0.000000
0.000000
0.000000
0.000000
0.000000
0.000000
0.000000
0.000000
0.000000
0.000000
0.000000
0.000000
0.000000
0.000000
0.000000
0.000000
0.000000
0.000000
0.000000
0.000000
0.000000
0.000000
0.000002
0.000003
0.000004
0.000002
0.000001
0.000000
0.000000
0.000000
0.000000
0.000000
0.000000
0.000000
0.000000
0.000000
0.000000
0.000000
0.000000
0.000000
0.000000
0.000002
0.000008
0.000015
0.000017
0.000010
0.000004
0.000001
0.000000
0.000000
0.000000
0.000000
0.000000
0.000000
0.000000
0.000000
0.000000
0.000000
0.000000
0.000000
0.000001
0.000005
0.000016
0.000031
0.000034
0.000022
0.000008
0.000001
0.000000
0.000000
0.000000
0.000000
0.000000
0.000000
0.000000
0.000000
0.000000
0.000000
0.000000
0.000000
0.000001
0.000005
0.000017
0.000032
0.000035
0.000022
0.000008
0.000002
0.000000
0.000000
0.000000
0.000000
0.000000
0.000000
0.000000
0.000000
0.000000
0.000000
0.000000
0.000000
0.000000
0.000002
0.000008
0.000016
0.000018
0.000011
0.000004
0.000001
0.000000
0.000000
0.000000
0.000000
0.000000
0.000000
0.000000
0.000000
0.000000
0.000000
0.000000
0.000000
0.000000
0.000001
0.000002
0.000004
0.000005
0.000003
0.000001
0.000000
0.000000
0.000000
0.000000
0.000000
0.000000
0.000000
0.000000
0.000000
0.000000
0.000000
0.000000
0.000000
0.000000
0.000000
0.000000
0.000001
0.000001
0.000000
0.000000
0.000000
0.000000
0.000000
0.000000
0.000000
0.000000
0.000000
0.000000
0.000000
0.000000
0.000000
0.000000
0.000000
0.000000
0.000000
0.000000
0.000000
0.000000
0.000000
0.000000
0.000000
0.000000
0.000000
0.000000
0.000000
0.000000
0.000000
0.000000
0.000000
0.000000
0.000000
0.000000
0.000000
0.000000
0.000000
0.000000
0.000000
0.000000
0.000000
0.000000
0.000000
0.000000
0.000000
0.000000
0.000000
0.000000
0.000000
0.000000
0.000000
0.000000
0.000000
0.000000
0.000000
0.000000
0.000000
0.000000
0.000000
0.000000
0.000000
0.000000
0.000000
0.000000
0.000000
0.000000
0.000000
0.000000
0.000000
0.000000
0.000000
0.000000
0.000000
0.000000
0.000000
0.000000
0.000000
0.000000
0.000000
0.000000
0.000000
0.000000
0.000000
0.000000
0.000000
0.000000
0.000000
0.000000
0.000000
0.000000
0.000000
0.000000
0.000000
0.000000
0.000000
0.000000
0.000000
0.000000
0.000000
0.000000
0.000000
0.000000
0.000000
0.000000
0.000000
0.000000
0.000000
0.000000
0.000000
0.000000


SCALARS Species_1 float 1 
LOOKUP_TABLE default 
0.000000
0.000000
0.000000
0.000000
0.000000
0.000000
0.000000
0.000000
0.000000
0.000001
0.000002
0.000005
0.000007
0.000006
0.000003
0.000001
0.000000
0.000000
0.000000
0.000000
0.000000
0.000000
0.000000
0.000000
0.000000
0.000000
0.000000
0.000000
0.000001
0.000007
0.000021
0.000044
0.000056
0.000049
0.000028
0.000011
0.000003
0.000001
0.000000
0.000000
0.000000
0.000000
0.000000
0.000000
0.000000
0.000000
0.000000
0.000002
0.000012
0.000052
0.000161
0.000325
0.000409
0.000354
0.000198
0.000078
0.000024
0.000006
0.000001
0.000000
0.000000
0.000000
0.000000
0.000000
0.000000
0.000000
0.000002
0.000015
0.000082
0.000338
0.000996
0.001952
0.002414
0.002064
0.001145
0.000452
0.000138
0.000034
0.000007
0.000002
0.000000
0.000000
0.000000
0.000000
0.000000
0.000001
0.000012
0.000082
0.000430
0.001706
0.004838
0.009209
0.011216
0.009473
0.005228
0.002059
0.000628
0.000157
0.000034
0.000007
0.000000
0.000000
0.000000
0.000000
0.000001
0.000006
0.000052
0.000338
0.001706
0.006497
0.017800
0.033019
0.039662
0.033146
0.018210
0.007164
0.002185
0.000547
0.000117
0.000025
0.000000
0.000000
0.000000
0.000000
0.000002
0.000021
0.000161
0.000996
0.004837
0.017800
0.047359
0.085946
0.102043
0.084549
0.046322
0.018228
0.005570
0.001397
0.000300
0.000063
0.000000
0.000000
0.000000
0.000000
0.000005
0.000044
0.000325
0.001952
0.009209
0.033018
0.085945
0.153492
0.180802
0.149026
0.081669
0.032240
0.009897
0.002496
0.000539
0.000115
0.000000
0.000000
0.000000
0.000001
0.000006
0.000056
0.000409
0.002414
0.011215
0.039660
0.102041
0.180802
0.212446
0.175063
0.096410
0.038351
0.011878
0.003025
0.000660
0.000142
0.000000
0.000000
0.000000
0.000001
0.000006
0.000049
0.000354
0.002063
0.009473
0.033145
0.084548
0.149027
0.175064
0.144551
0.080213
0.032246
0.010107
0.002606
0.000576
0.000126
0.000000
0.000000
0.000000
0.000000
0.000003
0.000028
0.000198
0.001145
0.005228
0.018209
0.046322
0.081671
0.096412
0.080214
0.045171
0.018494
0.005911
0.001555
0.000351
0.000078
0.000000
0.000000
0.000000
0.000000
0.000001
0.000011
0.000078
0.000452
0.002059
0.007164
0.018228
0.032242
0.038353
0.032247
0.018494
0.007742
0.002534
0.000683
0.000158
0.000036
0.000000
0.000000
0.000000
0.000000
0.000000
0.000003
0.000024
0.000138
0.000628
0.002185
0.005570
0.009898
0.011879
0.010107
0.005912
0.002534
0.000851
0.000235
0.000056
0.000013
0.000000
0.000000
0.000000
0.000000
0.000000
0.000001
0.000006
0.000034
0.000157
0.000547
0.001397
0.002496
0.003025
0.002606
0.001555
0.000683
0.000235
0.000067
0.000016
0.000004
0.000000
0.000000
0.000000
0.000000
0.000000
0.000000
0.000001
0.000007
0.000033
0.000117
0.000299
0.000538
0.000658
0.000574
0.000349
0.000157
0.000056
0.000016
0.000004
0.000001
0.000000
0.000000
0.000000
0.000000
0.000000
0.000000
0.000000
0.000001
0.000006
0.000022
0.000056
0.000102
0.000126
0.000111
0.000069
0.000032
0.000012
0.000003
0.000001
0.000000
0.000000
0.000000
0.000000
0.000000
0.000000
0.000000
0.000000
0.000000
0.000001
0.000004
0.000009
0.000017
0.000022
0.000019
0.000012
0.000006
0.000002
0.000001
0.000000
0.000000
0.000000
0.000000
0.000000
0.000000
0.000000
0.000000
0.000000
0.000000
0.000000
0.000001
0.000001
0.000003
0.000003
0.000003
0.000002
0.000001
0.000000
0.000000
0.000000
0.000000
0.000000
0.000000
0.000000
0.000000
0.000000
0.000000
0.000000
0.000000
0.000000
0.000000
0.000000
0.000000
0.000000
0.000000
0.000000
0.000000
0.000000
0.000000
0.000000
0.000000
0.000000
0.000000
0.000000
0.000000
0.000000
0.000000
0.000000
0.000000
0.000000
0.000000
0.000000
0.000000
0.000000
0.000000
0.000000
0.000000
0.000000
0.000000
0.000000
0.000000


SCALARS Species_2 float 1 
LOOKUP_TABLE default 
0.000000
0.000000
0.000000
0.000000
0.000000
0.000000
0.000000
0.000000
0.000000
0.000000
0.000000
0.000000
0.000000
0.000000
0.000000
0.000000
0.000000
0.000000
0.000000
0.000000
0.000000
0.000000
0.000000
0.000000
0.000000
0.000000
0.000000
0.000000
0.000000
0.000000
0.000000
0.000000
0.000000
0.000000
0.000000
0.000000