# vtk DataFile Version 2.0
generated by CFD-lab course output (written by Tobias Neckel) 
ASCII

DATASET STRUCTURED_GRID
DIMENSIONS  21 21 1 
POINTS 441 float

0.000000 0.000000 0
0.100000 0.000000 0
0.200000 0.000000 0
0.300000 0.000000 0
0.400000 0.000000 0
0.500000 0.000000 0
0.600000 0.000000 0
0.700000 0.000000 0
0.800000 0.000000 0
0.900000 0.000000 0
1.000000 0.000000 0
1.100000 0.000000 0
1.200000 0.000000 0
1.300000 0.000000 0
1.400000 0.000000 0
1.500000 0.000000 0
1.600000 0.000000 0
1.700000 0.000000 0
1.800000 0.000000 0
1.900000 0.000000 0
2.000000 0.000000 0
0.000000 0.100000 0
0.100000 0.100000 0
0.200000 0.100000 0
0.300000 0.100000 0
0.400000 0.100000 0
0.500000 0.100000 0
0.600000 0.100000 0
0.700000 0.100000 0
0.800000 0.100000 0
0.900000 0.100000 0
1.000000 0.100000 0
1.100000 0.100000 0
1.200000 0.100000 0
1.300000 0.100000 0
1.400000 0.100000 0
1.500000 0.100000 0
1.600000 0.100000 0
1.700000 0.100000 0
1.800000 0.100000 0
1.900000 0.100000 0
2.000000 0.100000 0
0.000000 0.200000 0
0.100000 0.200000 0
0.200000 0.200000 0
0.300000 0.200000 0
0.400000 0.200000 0
0.500000 0.200000 0
0.600000 0.200000 0
0.700000 0.200000 0
0.800000 0.200000 0
0.900000 0.200000 0
1.000000 0.200000 0
1.100000 0.200000 0
1.200000 0.200000 0
1.300000 0.200000 0
1.400000 0.200000 0
1.500000 0.200000 0
1.600000 0.200000 0
1.700000 0.200000 0
1.800000 0.200000 0
1.900000 0.200000 0
2.000000 0.200000 0
0.000000 0.300000 0
0.100000 0.300000 0
0.200000 0.300000 0
0.300000 0.300000 0
0.400000 0.300000 0
0.500000 0.300000 0
0.600000 0.300000 0
0.700000 0.300000 0
0.800000 0.300000 0
0.900000 0.300000 0
1.000000 0.300000 0
1.100000 0.300000 0
1.200000 0.300000 0
1.300000 0.300000 0
1.400000 0.300000 0
1.500000 0.300000 0
1.600000 0.300000 0
1.700000 0.300000 0
1.800000 0.300000 0
1.900000 0.300000 0
2.000000 0.300000 0
0.000000 0.400000 0
0.100000 0.400000 0
0.200000 0.400000 0
0.300000 0.400000 0
0.400000 0.400000 0
0.500000 0.400000 0
0.600000 0.400000 0
0.700000 0.400000 0
0.800000 0.400000 0
0.900000 0.400000 0
1.000000 0.400000 0
1.100000 0.400000 0
1.200000 0.400000 0
1.300000 0.400000 0
1.400000 0.400000 0
1.500000 0.400000 0
1.600000 0.400000 0
1.700000 0.400000 0
1.800000 0.400000 0
1.900000 0.400000 0
2.000000 0.400000 0
0.000000 0.500000 0
0.100000 0.500000 0
0.200000 0.500000 0
0.300000 0.500000 0
0.400000 0.500000 0
0.500000 0.500000 0
0.600000 0.500000 0
0.700000 0.500000 0
0.800000 0.500000 0
0.900000 0.500000 0
1.000000 0.500000 0
1.100000 0.500000 0
1.200000 0.500000 0
1.300000 0.500000 0
1.400000 0.500000 0
1.500000 0.500000 0
1.600000 0.500000 0
1.700000 0.500000 0
1.800000 0.500000 0
1.900000 0.500000 0
2.000000 0.500000 0
0.000000 0.600000 0
0.100000 0.600000 0
0.200000 0.600000 0
0.300000 0.600000 0
0.400000 0.600000 0
0.500000 0.600000 0
0.600000 0.600000 0
0.700000 0.600000 0
0.800000 0.600000 0
0.900000 0.600000 0
1.000000 0.600000 0
1.100000 0.600000 0
1.200000 0.600000 0
1.300000 0.600000 0
1.400000 0.600000 0
1.500000 0.600000 0
1.600000 0.600000 0
1.700000 0.600000 0
1.800000 0.600000 0
1.900000 0.600000 0
2.000000 0.600000 0
0.000000 0.700000 0
0.100000 0.700000 0
0.200000 0.700000 0
0.300000 0.700000 0
0.400000 0.700000 0
0.500000 0.700000 0
0.600000 0.700000 0
0.700000 0.700000 0
0.800000 0.700000 0
0.900000 0.700000 0
1.000000 0.700000 0
1.100000 0.700000 0
1.200000 0.700000 0
1.300000 0.700000 0
1.400000 0.700000 0
1.500000 0.700000 0
1.600000 0.700000 0
1.700000 0.700000 0
1.800000 0.700000 0
1.900000 0.700000 0
2.000000 0.700000 0
0.000000 0.800000 0
0.100000 0.800000 0
0.200000 0.800000 0
0.300000 0.800000 0
0.400000 0.800000 0
0.500000 0.800000 0
0.600000 0.800000 0
0.700000 0.800000 0
0.800000 0.800000 0
0.900000 0.800000 0
1.000000 0.800000 0
1.100000 0.800000 0
1.200000 0.800000 0
1.300000 0.800000 0
1.400000 0.800000 0
1.500000 0.800000 0
1.600000 0.800000 0
1.700000 0.800000 0
1.800000 0.800000 0
1.900000 0.800000 0
2.000000 0.800000 0
0.000000 0.900000 0
0.100000 0.900000 0
0.200000 0.900000 0
0.300000 0.900000 0
0.400000 0.900000 0
0.500000 0.900000 0
0.600000 0.900000 0
0.700000 0.900000 0
0.800000 0.900000 0
0.900000 0.900000 0
1.000000 0.900000 0
1.100000 0.900000 0
1.200000 0.900000 0
1.300000 0.900000 0
1.400000 0.900000 0
1.500000 0.900000 0
1.600000 0.900000 0
1.700000 0.900000 0
1.800000 0.900000 0
1.900000 0.900000 0
2.000000 0.900000 0
0.000000 1.000000 0
0.100000 1.000000 0
0.200000 1.000000 0
0.300000 1.000000 0
0.400000 1.000000 0
0.500000 1.000000 0
0.600000 1.000000 0
0.700000 1.000000 0
0.800000 1.000000 0
0.900000 1.000000 0
1.000000 1.000000 0
1.100000 1.000000 0
1.200000 1.000000 0
1.300000 1.000000 0
1.400000 1.000000 0
1.500000 1.000000 0
1.600000 1.000000 0
1.700000 1.000000 0
1.800000 1.000000 0
1.900000 1.000000 0
2.000000 1.000000 0
0.000000 1.100000 0
0.100000 1.100000 0
0.200000 1.100000 0
0.300000 1.100000 0
0.400000 1.100000 0
0.500000 1.100000 0
0.600000 1.100000 0
0.700000 1.100000 0
0.800000 1.100000 0
0.900000 1.100000 0
1.000000 1.100000 0
1.100000 1.100000 0
1.200000 1.100000 0
1.300000 1.100000 0
1.400000 1.100000 0
1.500000 1.100000 0
1.600000 1.100000 0
1.700000 1.100000 0
1.800000 1.100000 0
1.900000 1.100000 0
2.000000 1.100000 0
0.000000 1.200000 0
0.100000 1.200000 0
0.200000 1.200000 0
0.300000 1.200000 0
0.400000 1.200000 0
0.500000 1.200000 0
0.600000 1.200000 0
0.700000 1.200000 0
0.800000 1.200000 0
0.900000 1.200000 0
1.000000 1.200000 0
1.100000 1.200000 0
1.200000 1.200000 0
1.300000 1.200000 0
1.400000 1.200000 0
1.500000 1.200000 0
1.600000 1.200000 0
1.700000 1.200000 0
1.800000 1.200000 0
1.900000 1.200000 0
2.000000 1.200000 0
0.000000 1.300000 0
0.100000 1.300000 0
0.200000 1.300000 0
0.300000 1.300000 0
0.400000 1.300000 0
0.500000 1.300000 0
0.600000 1.300000 0
0.700000 1.300000 0
0.800000 1.300000 0
0.900000 1.300000 0
1.000000 1.300000 0
1.100000 1.300000 0
1.200000 1.300000 0
1.300000 1.300000 0
1.400000 1.300000 0
1.500000 1.300000 0
1.600000 1.300000 0
1.700000 1.300000 0
1.800000 1.300000 0
1.900000 1.300000 0
2.000000 1.300000 0
0.000000 1.400000 0
0.100000 1.400000 0
0.200000 1.400000 0
0.300000 1.400000 0
0.400000 1.400000 0
0.500000 1.400000 0
0.600000 1.400000 0
0.700000 1.400000 0
0.800000 1.400000 0
0.900000 1.400000 0
1.000000 1.400000 0
1.100000 1.400000 0
1.200000 1.400000 0
1.300000 1.400000 0
1.400000 1.400000 0
1.500000 1.400000 0
1.600000 1.400000 0
1.700000 1.400000 0
1.800000 1.400000 0
1.900000 1.400000 0
2.000000 1.400000 0
0.000000 1.500000 0
0.100000 1.500000 0
0.200000 1.500000 0
0.300000 1.500000 0
0.400000 1.500000 0
0.500000 1.500000 0
0.600000 1.500000 0
0.700000 1.500000 0
0.800000 1.500000 0
0.900000 1.500000 0
1.000000 1.500000 0
1.100000 1.500000 0
1.200000 1.500000 0
1.300000 1.500000 0
1.400000 1.500000 0
1.500000 1.500000 0
1.600000 1.500000 0
1.700000 1.500000 0
1.800000 1.500000 0
1.900000 1.500000 0
2.000000 1.500000 0
0.000000 1.600000 0
0.100000 1.600000 0
0.200000 1.600000 0
0.300000 1.600000 0
0.400000 1.600000 0
0.500000 1.600000 0
0.600000 1.600000 0
0.700000 1.600000 0
0.800000 1.600000 0
0.900000 1.600000 0
1.000000 1.600000 0
1.100000 1.600000 0
1.200000 1.600000 0
1.300000 1.600000 0
1.400000 1.600000 0
1.500000 1.600000 0
1.600000 1.600000 0
1.700000 1.600000 0
1.800000 1.600000 0
1.900000 1.600000 0
2.000000 1.600000 0
0.000000 1.700000 0
0.100000 1.700000 0
0.200000 1.700000 0
0.300000 1.700000 0
0.400000 1.700000 0
0.500000 1.700000 0
0.600000 1.700000 0
0.700000 1.700000 0
0.800000 1.700000 0
0.900000 1.700000 0
1.000000 1.700000 0
1.100000 1.700000 0
1.200000 1.700000 0
1.300000 1.700000 0
1.400000 1.700000 0
1.500000 1.700000 0
1.600000 1.700000 0
1.700000 1.700000 0
1.800000 1.700000 0
1.900000 1.700000 0
2.000000 1.700000 0
0.000000 1.800000 0
0.100000 1.800000 0
0.200000 1.800000 0
0.300000 1.800000 0
0.400000 1.800000 0
0.500000 1.800000 0
0.600000 1.800000 0
0.700000 1.800000 0
0.800000 1.800000 0
0.900000 1.800000 0
1.000000 1.800000 0
1.100000 1.800000 0
1.200000 1.800000 0
1.300000 1.800000 0
1.400000 1.800000 0
1.500000 1.800000 0
1.600000 1.800000 0
1.700000 1.800000 0
1.800000 1.800000 0
1.900000 1.800000 0
2.000000 1.800000 0
0.000000 1.900000 0
0.100000 1.900000 0
0.200000 1.900000 0
0.300000 1.900000 0
0.400000 1.900000 0
0.500000 1.900000 0
0.600000 1.900000 0
0.700000 1.900000 0
0.800000 1.900000 0
0.900000 1.900000 0
1.000000 1.900000 0
1.100000 1.900000 0
1.200000 1.900000 0
1.300000 1.900000 0
1.400000 1.900000 0
1.500000 1.900000 0
1.600000 1.900000 0
1.700000 1.900000 0
1.800000 1.900000 0
1.900000 1.900000 0
2.000000 1.900000 0
0.000000 2.000000 0
0.100000 2.000000 0
0.200000 2.000000 0
0.300000 2.000000 0
0.400000 2.000000 0
0.500000 2.000000 0
0.600000 2.000000 0
0.700000 2.000000 0
0.800000 2.000000 0
0.900000 2.000000 0
1.000000 2.000000 0
1.100000 2.000000 0
1.200000 2.000000 0
1.300000 2.000000 0
1.400000 2.000000 0
1.500000 2.000000 0
1.600000 2.000000 0
1.700000 2.000000 0
1.800000 2.000000 0
1.900000 2.000000 0
2.000000 2.000000 0
POINT_DATA 441 

VECTORS velocity float
0.000000 0.000000 0
0.000010 0.000000 0
0.000002 0.000000 0
-0.000005 0.000000 0
-0.000007 0.000000 0
-0.000004 0.000000 0
0.000000 0.000000 0
0.000003 0.000000 0
0.000004 0.000000 0
0.000003 0.000000 0
0.000001 0.000000 0
-0.000001 0.000000 0
-0.000001 0.000000 0
-0.000001 0.000000 0
-0.000001 0.000000 0
-0.000000 0.000000 0
-0.000000 0.000000 0
0.000000 0.000000 0
0.000000 0.000000 0
-0.000000 0.000000 0
-0.000000 0.000000 0
0.000000 0.000007 0
0.000022 -0.000010 0
0.000034 -0.000023 0
0.000043 -0.000025 0
0.000051 -0.000015 0
0.000053 0.000002 0
0.000048 0.000018 0
0.000034 0.000029 0
0.000012 0.000033 0
-0.000017 0.000031 0
-0.000047 0.000026 0
-0.000075 0.000020 0
-0.000099 0.000015 0
-0.000116 0.000011 0
-0.000128 0.000007 0
-0.000135 0.000004 0
-0.000138 0.000002 0
-0.000138 0.000000 0
-0.000138 -0.000000 0
-0.000137 -0.000000 0
-0.000137 -0.000000 0
0.000000 -0.000006 0
0.000013 -0.000040 0
0.000034 -0.000038 0
0.000052 -0.000023 0
0.000064 -0.000002 0
0.000066 0.000017 0
0.000056 0.000032 0
0.000036 0.000043 0
0.000009 0.000049 0
-0.000023 0.000052 0
-0.000055 0.000052 0
-0.000085 0.000047 0
-0.000110 0.000039 0
-0.000128 0.000030 0
-0.000141 0.000020 0
-0.000148 0.000011 0
-0.000150 0.000005 0
-0.000151 0.000001 0
-0.000150 -0.000001 0
-0.000149 -0.000001 0
-0.000149 -0.000001 0
0.000000 -0.000004 0
0.000015 -0.000055 0
0.000042 -0.000045 0
0.000062 -0.000027 0
0.000073 -0.000009 0
0.000072 0.000012 0
0.000061 0.000034 0
0.000041 0.000056 0
0.000012 0.000075 0
-0.000022 0.000087 0
-0.000057 0.000088 0
-0.000089 0.000080 0
-0.000115 0.000065 0
-0.000134 0.000047 0
-0.000145 0.000029 0
-0.000151 0.000015 0
-0.000152 0.000005 0
-0.000150 -0.000001 0
-0.000148 -0.000003 0
-0.000147 -0.000002 0
-0.000146 -0.000001 0
0.000000 0.000003 0
0.000022 -0.000070 0
0.000049 -0.000065 0
0.000068 -0.000049 0
0.000080 -0.000025 0
0.000082 0.000007 0
0.000074 0.000046 0
0.000054 0.000085 0
0.000022 0.000115 0
-0.000018 0.000130 0
-0.000060 0.000128 0
-0.000097 0.000112 0
-0.000125 0.000086 0
-0.000142 0.000059 0
-0.000151 0.000034 0
-0.000153 0.000016 0
-0.000151 0.000003 0
-0.000148 -0.000003 0
-0.000144 -0.000005 0
-0.000142 -0.000003 0
-0.000142 -0.000001 0
0.000000 0.000003 0
0.000024 -0.000096 0
0.000051 -0.000095 0
0.000074 -0.000073 0
0.000092 -0.000036 0
0.000100 0.000012 0
0.000094 0.000067 0
0.000071 0.000118 0
0.000033 0.000157 0
-0.000016 0.000174 0
-0.000065 0.000168 0
-0.000107 0.000143 0
-0.000136 0.000107 0
-0.000152 0.000070 0
-0.000157 0.000038 0
-0.000154 0.000014 0
-0.000149 -0.000001 0
-0.000143 -0.000008 0
-0.000137 -0.000008 0
-0.000134 -0.000004 0
-0.000134 -0.000002 0
0.000000 -0.000001 0
0.000023 -0.000127 0
0.000054 -0.000123 0
0.000083 -0.000092 0
0.000105 -0.000045 0
0.000117 0.000015 0
0.000112 0.000083 0
0.000087 0.000149 0
0.000043 0.000201 0
-0.000013 0.000224 0
-0.000071 0.000215 0
-0.000117 0.000180 0
-0.000146 0.000130 0
-0.000158 0.000080 0
-0.000158 0.000038 0
-0.000152 0.000009 0
-0.000143 -0.000008 0
-0.000134 -0.000014 0
-0.000127 -0.000013 0
-0.000123 -0.000006 0
-0.000123 -0.000002 0
0.000000 -0.000001 0
0.000024 -0.000155 0
0.000056 -0.000149 0
0.000087 -0.000115 0
0.000111 -0.000063 0
0.000126 0.000008 0
0.000124 0.000093 0
0.000100 0.000181 0
0.000053 0.000252 0
-0.000010 0.000285 0
-0.000073 0.000271 0
-0.000122 0.000220 0
-0.000149 0.000151 0
-0.000157 0.000085 0
-0.000153 0.000033 0
-0.000142 -0.000001 0
-0.000130 -0.000019 0
-0.000119 -0.000024 0
-0.000111 -0.000019 0
-0.000106 -0.000009 0
-0.000106 -0.000002 0
0.000000 0.000001 0
0.000023 -0.000181 0
0.000052 -0.000178 0
0.000080 -0.000144 0
0.000105 -0.000086 0
0.000122 -0.000003 0
0.000123 0.000103 0
0.000103 0.000217 0
0.000057 0.000310 0
-0.000006 0.000352 0
-0.000070 0.000330 0
-0.000117 0.000258 0
-0.000140 0.000167 0
-0.000144 0.000084 0
-0.000135 0.000022 0
-0.000122 -0.000015 0
-0.000108 -0.000032 0
-0.000097 -0.000034 0
-0.000088 -0.000026 0
-0.000084 -0.000011 0
-0.000084 -0.000002 0
0.000000 0.000001 0
0.000018 -0.000205 0
0.000040 -0.000207 0
0.000062 -0.000170 0
0.000084 -0.000107 0
0.000100 -0.000013 0
0.000104 0.000112 0
0.000089 0.000249 0
0.000052 0.000364 0
-0.000002 0.000414 0
-0.000056 0.000383 0
-0.000094 0.000290 0
-0.000111 0.000177 0
-0.000111 0.000079 0
-0.000101 0.000010 0
-0.000088 -0.000029 0
-0.000076 -0.000044 0
-0.000066 -0.000043 0
-0.000059 -0.000032 0
-0.000056 -0.000013 0
-0.000056 -0.000003 0
0.000000 -0.000001 0
0.000010 -0.000223 0
0.000022 -0.000225 0
0.000035 -0.000188 0
0.000048 -0.000121 0
0.000058 -0.000021 0
0.000062 0.000116 0
0.000054 0.000270 0
0.000033 0.000401 0
0.000002 0.000459 0
-0.000030 0.000421 0
-0.000051 0.000312 0
-0.000059 0.000183 0
-0.000058 0.000074 0
-0.000051 0.000000 0
-0.000043 -0.000039 0
-0.000035 -0.000054 0
-0.000029 -0.000051 0
-0.000025 -0.000036 0
-0.000023 -0.000015 0
-0.000023 -0.000003 0
0.000000 -0.000001 0
-0.000000 -0.000229 0
0.000000 -0.000231 0
0.000001 -0.000194 0
0.000002 -0.000127 0
0.000002 -0.000025 0
0.000003 0.000115 0
0.000004 0.000276 0
0.000004 0.000414 0
0.000005 0.000475 0
0.000006 0.000435 0
0.000007 0.000320 0
0.000008 0.000185 0
0.000009 0.000071 0
0.000010 -0.000004 0
0.000010 -0.000044 0
0.000011 -0.000058 0
0.000012 -0.000054 0
0.000012 -0.000038 0
0.000013 -0.000015 0
0.000013 -0.000003 0
0.000000 -0.000000 0
-0.000009 -0.000223 0
-0.000021 -0.000225 0
-0.000034 -0.000188 0
-0.000045 -0.000123 0
-0.000054 -0.000023 0
-0.000056 0.000113 0
-0.000047 0.000268 0
-0.000024 0.000399 0
0.000009 0.000457 0
0.000042 0.000419 0
0.000065 0.000311 0
0.000075 0.000182 0
0.000076 0.000073 0
0.000071 -0.000001 0
0.000064 -0.000041 0
0.000058 -0.000055 0
0.000053 -0.000052 0
0.000050 -0.000037 0
0.000049 -0.000015 0
0.000049 -0.000003 0
0.000000 -0.000000 0
-0.000018 -0.000207 0
-0.000040 -0.000208 0
-0.000062 -0.000171 0
-0.000082 -0.000108 0
-0.000096 -0.000014 0
-0.000099 0.000109 0
-0.000082 0.000245 0
-0.000043 0.000359 0
0.000012 0.000409 0
0.000068 0.000379 0
0.000108 0.000286 0
0.000127 0.000174 0
0.000129 0.000076 0
0.000122 0.000007 0
0.000111 -0.000032 0
0.000100 -0.000047 0
0.000092 -0.000046 0
0.000086 -0.000033 0
0.000083 -0.000013 0
0.000083 -0.000002 0
0.000000 -0.000000 0
-0.000024 -0.000184 0
-0.000053 -0.000182 0
-0.000080 -0.000146 0
-0.000104 -0.000088 0
-0.000120 -0.000005 0
-0.000121 0.000100 0
-0.000099 0.000213 0
-0.000051 0.000304 0
0.000015 0.000345 0
0.000081 0.000323 0
0.000131 0.000251 0
0.000157 0.000161 0
0.000163 0.000078 0
0.000157 0.000017 0
0.000146 -0.000020 0
0.000134 -0.000036 0
0.000124 -0.000037 0
0.000117 -0.000028 0
0.000113 -0.000012 0
0.000113 -0.000002 0
0.000000 -0.000000 0
-0.000027 -0.000155 0
-0.000059 -0.000152 0
-0.000089 -0.000119 0
-0.000113 -0.000067 0
-0.000127 0.000003 0
-0.000124 0.000088 0
-0.000099 0.000175 0
-0.000049 0.000245 0
0.000017 0.000277 0
0.000084 0.000262 0
0.000136 0.000210 0
0.000168 0.000142 0
0.000179 0.000076 0
0.000178 0.000025 0
0.000170 -0.000008 0
0.000159 -0.000025 0
0.000149 -0.000028 0
0.000142 -0.000022 0
0.000138 -0.000009 0
0.000138 -0.000002 0
0.000000 -0.000000 0
-0.000028 -0.000124 0
-0.000061 -0.000120 0
-0.000091 -0.000092 0
-0.000113 -0.000050 0
-0.000124 0.000006 0
-0.000118 0.000072 0
-0.000091 0.000137 0
-0.000043 0.000189 0
0.000018 0.000212 0
0.000081 0.000203 0
0.000132 0.000167 0
0.000167 0.000118 0
0.000184 0.000068 0
0.000188 0.000027 0
0.000184 -0.000001 0
0.000176 -0.000016 0
0.000168 -0.000020 0
0.000162 -0.000017 0
0.000158 -0.000007 0
0.000158 -0.000002 0
0.000000 -0.000000 0
-0.000029 -0.000093 0
-0.000062 -0.000090 0
-0.000091 -0.000068 0
-0.000111 -0.000035 0
-0.000118 0.000007 0
-0.000110 0.000055 0
-0.000082 0.000101 0
-0.000038 0.000136 0
0.000018 0.000153 0
0.000076 0.000148 0
0.000126 0.000124 0
0.000162 0.000090 0
0.000183 0.000055 0
0.000192 0.000025 0
0.000193 0.000003 0
0.000188 -0.000009 0
0.000182 -0.000014 0
0.000177 -0.000012 0
0.000173 -0.000005 0
0.000173 -0.000001 0
0.000000 -0.000000 0
-0.000030 -0.000062 0
-0.000064 -0.000059 0
-0.000091 -0.000044 0
-0.000110 -0.000022 0
-0.000116 0.000006 0
-0.000105 0.000036 0
-0.000078 0.000066 0
-0.000035 0.000088 0
0.000018 0.000099 0
0.000072 0.000096 0
0.000121 0.000081 0
0.000158 0.000060 0
0.000182 0.000038 0
0.000195 0.000018 0
0.000198 0.000003 0
0.000196 -0.000005 0
0.000191 -0.000009 0
0.000187 -0.000008 0
0.000184 -0.000004 0
0.000183 -0.000001 0
0.000000 -0.000000 0
-0.000030 -0.000030 0
-0.000062 -0.000028 0
-0.000089 -0.000021 0
-0.000106 -0.000010 0
-0.000111 0.000003 0
-0.000101 0.000017 0
-0.000075 0.000031 0
-0.000035 0.000041 0
0.000013 0.000046 0
0.000063 0.000045 0
0.000109 0.000038 0
0.000145 0.000029 0
0.000169 0.000018 0
0.000183 0.000009 0
0.000187 0.000002 0
0.000186 -0.000003 0
0.000182 -0.000004 0
0.000177 -0.000004 0
0.000174 -0.000002 0
0.000173 -0.000000 0
0.000000 0.000000 0
0.000000 0.000000 0
0.000000 0.000000 0
-0.000000 0.000000 0
-0.000000 0.000000 0
-0.000000 0.000000 0
-0.000000 0.000000 0
-0.000000 0.000000 0
-0.000000 0.000000 0
0.000000 0.000000 0
0.000000 0.000000 0
0.000000 0.000000 0
0.000000 0.000000 0
0.000000 0.000000 0
0.000000 0.000000 0
0.000000 0.000000 0
0.000000 0.000000 0
0.000000 0.000000 0
0.000000 0.000000 0
0.000000 0.000000 0
0.000000 0.000000 0

CELL_DATA 400 
SCALARS pressure float 1 
LOOKUP_TABLE default 
0.242624
0.242585
0.242578
0.242600
0.242629
0.242647
0.242646
0.242632
0.242615
0.242602
0.242598
0.242600
0.242606
0.242612
0.242616
0.242617
0.242618
0.242618
0.242618
0.242618
0.219596
0.219610
0.219627
0.219635
0.219630
0.219617
0.219605
0.219599
0.219600
0.219605
0.219611
0.219616
0.219617
0.219617
0.219617
0.219616
0.219616
0.219616
0.219617
0.219618
0.196619
0.196636
0.196631
0.196613
0.196596
0.196590
0.196595
0.196606
0.196617
0.196623
0.196623
0.196620
0.196616
0.196614
0.196613
0.196614
0.196615
0.196616
0.196617
0.196618
0.173633
0.173626
0.173608
0.173595
0.173594
0.173603
0.173615
0.173623
0.173625
0.173622
0.173617
0.173613
0.173611
0.173611
0.173613
0.173615
0.173616
0.173617
0.173618
0.173619
0.150620
0.150611
0.150608
0.150610
0.150615
0.150619
0.150620
0.150619
0.150615
0.150612
0.150611
0.150611
0.150613
0.150614
0.150616
0.150617
0.150617
0.150618
0.150619
0.150619
0.127609
0.127616
0.127623
0.127624
0.127620
0.127614
0.127610
0.127608
0.127609
0.127612
0.127614
0.127616
0.127617
0.127617
0.127617
0.127617
0.127617
0.127618
0.127619
0.127619
0.104615
0.104625
0.104626
0.104620
0.104612
0.104607
0.104606
0.104610
0.104614
0.104617
0.104618
0.104618
0.104617
0.104617
0.104616
0.104617
0.104618
0.104618
0.104619
0.104620
0.081621
0.081623
0.081619
0.081615
0.081612
0.081612
0.081614
0.081616
0.081617
0.081618
0.081617
0.081617
0.081616
0.081617
0.081617
0.081618
0.081619
0.081619
0.081620
0.081620
0.058619
0.058618
0.058619
0.058619
0.058620
0.058619
0.058618
0.058617
0.058616
0.058616
0.058616
0.058617
0.058618
0.058618
0.058619
0.058619
0.058620
0.058620
0.058620
0.058621
0.035617
0.035620
0.035623
0.035625
0.035623
0.035620
0.035618
0.035616
0.035616
0.035617
0.035619
0.035620
0.035620
0.035621
0.035621
0.035621
0.035621
0.035621
0.035621
0.035621
0.012620
0.012623
0.012625
0.012625
0.012623
0.012620
0.012619
0.012619
0.012620
0.012621
0.012622
0.012622
0.012622
0.012622
0.012622
0.012622
0.012622
0.012622
0.012622
0.012622
-0.010377
-0.010376
-0.010376
-0.010376
-0.010376
-0.010377
-0.010377
-0.010376
-0.010376
-0.010376
-0.010376
-0.010376
-0.010376
-0.010376
-0.010377
-0.010377
-0.010377
-0.010377
-0.010377
-0.010377
-0.033376
-0.033376
-0.033375
-0.033374
-0.033373
-0.033373
-0.033373
-0.033374
-0.033374
-0.033374
-0.033374
-0.033374
-0.033374
-0.033375
-0.033375
-0.033375
-0.033376
-0.033376
-0.033376
-0.033377
-0.056375
-0.056375
-0.056373
-0.056371
-0.056371
-0.056371
-0.056372
-0.056372
-0.056372
-0.056372
-0.056372
-0.056372
-0.056372
-0.056373
-0.056373
-0.056374
-0.056375
-0.056375
-0.056376
-0.056376
-0.079373
-0.079373
-0.079372
-0.079371
-0.079370
-0.079370
-0.079370
-0.079370
-0.079370
-0.079370
-0.079370
-0.079370
-0.079371
-0.079372
-0.079372
-0.079373
-0.079374
-0.079374
-0.079375
-0.079376
-0.102371
-0.102372
-0.102372
-0.102371
-0.102370
-0.102369
-0.102368
-0.102368
-0.102368
-0.102368
-0.102369
-0.102369
-0.102370
-0.102371
-0.102371
-0.102372
-0.102373
-0.102374
-0.102374
-0.102375
-0.125371
-0.125371
-0.125371
-0.125370
-0.125369
-0.125368
-0.125367
-0.125367
-0.125367
-0.125368
-0.125368
-0.125368
-0.125369
-0.125370
-0.125370
-0.125371
-0.125372
-0.125373
-0.125374
-0.125374
-0.148370
-0.148371
-0.148370
-0.148369
-0.148368
-0.148367
-0.148367
-0.148366
-0.148367
-0.148367
-0.148367
-0.148367
-0.148368
-0.148369
-0.148369
-0.148370
-0.148371
-0.148372
-0.148373
-0.148374
-0.171369
-0.171370
-0.171369
-0.171369
-0.171368
-0.171367
-0.171366
-0.171366
-0.171366
-0.171366
-0.171366
-0.171366
-0.171367
-0.171368
-0.171369
-0.171370
-0.171371
-0.171372
-0.171373
-0.171374
-0.194369
-0.194369
-0.194369
-0.194369
-0.194367
-0.194366
-0.194365
-0.194365
-0.194364
-0.194364
-0.194365
-0.194365
-0.194366
-0.194367
-0.194368
-0.194369
-0.194370
-0.194371
-0.194372
-0.194373

SCALARS temperature float 1 
LOOKUP_TABLE default 
0.000022
0.000179
0.000481
0.000906
0.001418
0.001970
0.002506
0.002969
0.003310
0.003499
0.003529
0.003416
0.003194
0.002906
0.002594
0.002293
0.002031
0.001825
0.001683
0.001612
0.000024
0.000194
0.000521
0.000983
0.001541
0.002144
0.002731
0.003236
0.003607
0.003805
0.003826
0.003689
0.003434
0.003110
0.002763
0.002432
0.002147
0.001923
0.001770
0.001693
0.000028
0.000225
0.000606
0.001146
0.001803
0.002517
0.003213
0.003811
0.004242
0.004460
0.004458
0.004265
0.003934
0.003528
0.003105
0.002709
0.002373
0.002112
0.001936
0.001849
0.000035
0.000275
0.000744
0.001414
0.002237
0.003140
0.004026
0.004787
0.005323
0.005569
0.005518
0.005217
0.004747
0.004195
0.003640
0.003135
0.002715
0.002395
0.002183
0.002077
0.000044
0.000348
0.000946
0.001811
0.002889
0.004090
0.005285
0.006311
0.007016
0.007298
0.007150
0.006655
0.005945
0.005154
0.004390
0.003718
0.003174
0.002770
0.002504
0.002374
0.000057
0.000447
0.001220
0.002358
0.003806
0.005455
0.007124
0.008570
0.009540
0.009862
0.009533
0.008705
0.007604
0.006441
0.005366
0.004457
0.003743
0.003225
0.002891
0.002728
0.000073
0.000569
0.001567
0.003062
0.005014
0.007297
0.009671
0.011758
0.013135
0.013499
0.012850
0.011476
0.009768
0.008060
0.006551
0.005326
0.004395
0.003737
0.003320
0.003120
0.000091
0.000708
0.001965
0.003890
0.006474
0.009597
0.012953
0.015972
0.017948
0.018348
0.017180
0.014972
0.012390
0.009940
0.007877
0.006268
0.005085
0.004268
0.003761
0.003519
0.000109
0.000847
0.002370
0.004751
0.008039
0.012154
0.016733
0.020971
0.023747
0.024172
0.022267
0.018933
0.015236
0.011897
0.009206
0.007184
0.005741
0.004768
0.004171
0.003889
0.000124
0.000963
0.002712
0.005493
0.009426
0.014500
0.020325
0.025863
0.029513
0.029953
0.027222
0.022665
0.017815
0.013606
0.010334
0.007947
0.006282
0.005177
0.004507
0.004192
0.000132
0.001033
0.002918
0.005942
0.010277
0.015973
0.022637
0.029081
0.033350
0.033805
0.030491
0.025081
0.019451
0.014678
0.011040
0.008430
0.006630
0.005446
0.004731
0.004395
0.000134
0.001042
0.002942
0.005985
0.010342
0.016060
0.022747
0.029223
0.033527
0.033998
0.030684
0.025267
0.019628
0.014840
0.011185
0.008557
0.006742
0.005545
0.004821
0.004481
0.000128
0.000991
0.002785
0.005627
0.009629
0.014774
0.020675
0.026303
0.030047
0.030536
0.027805
0.023225
0.018342
0.014090
0.010766
0.008326
0.006615
0.005472
0.004776
0.004447
0.000115
0.000895
0.002496
0.004984
0.008396
0.012642
0.017356
0.021738
0.024647
0.025144
0.023244
0.019873
0.016118
0.012702
0.009924
0.007813
0.006292
0.005257
0.004617
0.004311
0.000100
0.000777
0.002149
0.004232
0.007004
0.010328
0.013884
0.017094
0.019230
0.019717
0.018559
0.016303
0.013634
0.011069
0.008879
0.007144
0.005851
0.004947
0.004379
0.004105
0.000085
0.000661
0.001811
0.003521
0.005728
0.008287
0.010931
0.013260
0.014824
0.015289
0.014650
0.013209
0.011380
0.009514
0.007834
0.006445
0.005371
0.004600
0.004106
0.003865
0.000072
0.000561
0.001527
0.002936
0.004709
0.006709
0.008720
0.010462
0.011651
0.012088
0.011764
0.010846
0.009584
0.008219
0.006927
0.005813
0.004923
0.004268
0.003840
0.003628
0.000062
0.000486
0.001315
0.002506
0.003979
0.005607
0.007215
0.008596
0.009557
0.009968
0.009817
0.009205
0.008294
0.007254
0.006227
0.005310
0.004556
0.003989
0.003613
0.003425
0.000055
0.000436
0.001177
0.002231
0.003520
0.004927
0.006301
0.007478
0.008311
0.008702
0.008640
0.008192
0.007476
0.006625
0.005759
0.004965
0.004300
0.003791
0.003450
0.003279
0.000052
0.000411
0.001109
0.002097
0.003299
0.004604
0.005873
0.006959
0.007734
0.008115
0.008089
0.007711
0.007081
0.006317
0.005525
0.004790
0.004167
0.003688
0.003365
0.003202


SCALARS Species_1 float 1 
LOOKUP_TABLE default 
0.000579
0.001733
0.002871
0.003985
0.005064
0.006099
0.007078
0.007993
0.008835
0.009596
0.010271
0.010859
0.011359
0.011775
0.012111
0.012375
0.012574
0.012716
0.012806
0.012850
0.000579
0.001731
0.002869
0.003982
0.005060
0.006094
0.007073
0.007987
0.008828
0.009588
0.010263
0.010851
0.011351
0.011767
0.012104
0.012368
0.012567
0.012709
0.012799
0.012843
0.000578
0.001729
0.002865
0.003977
0.005054
0.006086
0.007063
0.007976
0.008816
0.009575
0.010250
0.010837
0.011336
0.011752
0.012089
0.012353
0.012552
0.012694
0.012784
0.012829
0.000577
0.001725
0.002858
0.003967
0.005041
0.006071
0.007045
0.007956
0.008794
0.009551
0.010224
0.010810
0.011309
0.011724
0.012060
0.012324
0.012523
0.012664
0.012755
0.012799
0.000574
0.001718
0.002846
0.003950
0.005019
0.006044
0.007015
0.007922
0.008756
0.009510
0.010180
0.010764
0.011261
0.011674
0.012009
0.012272
0.012470
0.012612
0.012702
0.012746
0.000570
0.001706
0.002827
0.003923
0.004985
0.006003
0.006966
0.007867
0.008695
0.009445
0.010110
0.010689
0.011183
0.011593
0.011926
0.012187
0.012385
0.012526
0.012615
0.012659
0.000565
0.001689
0.002798
0.003883
0.004934
0.005941
0.006894
0.007785
0.008605
0.009347
0.010006
0.010579
0.011067
0.011474
0.011803
0.012062
0.012258
0.012397
0.012487
0.012530
0.000556
0.001664
0.002758
0.003827
0.004863
0.005855
0.006795
0.007673
0.008481
0.009212
0.009862
0.010426
0.010908
0.011308
0.011633
0.011889
0.012082
0.012220
0.012308
0.012351
0.000546
0.001633
0.002706
0.003755
0.004771
0.005744
0.006666
0.007528
0.008320
0.009037
0.009674
0.010228
0.010700
0.011093
0.011412
0.011663
0.011853
0.011988
0.012075
0.012117
0.000533
0.001594
0.002641
0.003665
0.004657
0.005608
0.006508
0.007348
0.008122
0.008821
0.009442
0.009983
0.010444
0.010828
0.011139
0.011385
0.011570
0.011703
0.011788
0.011829
0.000518
0.001549
0.002566
0.003560
0.004524
0.005447
0.006321
0.007138
0.007888
0.008568
0.009171
0.009696
0.010143
0.010516
0.010819
0.011058
0.011239
0.011368
0.011450
0.011491
0.000501
0.001497
0.002481
0.003443
0.004374
0.005267
0.006112
0.006901
0.007626
0.008283
0.008865
0.009373
0.009806
0.010167
0.010460
0.010691
0.010867
0.010992
0.011072
0.011111
0.000482
0.001442
0.002390
0.003316
0.004213
0.005073
0.005886
0.006646
0.007345
0.007977
0.008538
0.009027
0.009444
0.009792
0.010075
0.010298
0.010467
0.010588
0.010666
0.010704
0.000463
0.001385
0.002295
0.003185
0.004047
0.004873
0.005654
0.006384
0.007055
0.007662
0.008201
0.008671
0.009072
0.009407
0.009679
0.009894
0.010057
0.010174
0.010249
0.010285
0.000444
0.001329
0.002203
0.003057
0.003884
0.004676
0.005426
0.006126
0.006770
0.007352
0.007870
0.008322
0.008707
0.009029
0.009291
0.009498
0.009655
0.009768
0.009840
0.009875
0.000427
0.001277
0.002116
0.002937
0.003731
0.004492
0.005213
0.005885
0.006504
0.007064
0.007562
0.007997
0.008368
0.008678
0.008930
0.009129
0.009281
0.009389
0.009459
0.009493
0.000412
0.001231
0.002040
0.002832
0.003598
0.004332
0.005026
0.005675
0.006272
0.006812
0.007293
0.007712
0.008071
0.008370
0.008614
0.008807
0.008954
0.009059
0.009126
0.009159
0.000399
0.001195
0.001980
0.002747
0.003490
0.004203
0.004876
0.005506
0.006085
0.006610
0.007077
0.007484
0.007833
0.008124
0.008361
0.008549
0.008691
0.008793
0.008859
0.008891
0.000391
0.001169
0.001937
0.002688
0.003415
0.004112
0.004772
0.005388
0.005955
0.006469
0.006926
0.007325
0.007666
0.007952
0.008184
0.008368
0.008508
0.008608
0.008672
0.008704
0.000386
0.001156
0.001915
0.002658
0.003377
0.004066
0.004718
0.005327
0.005888
0.006396
0.006848
0.007243
0.007581
0.007863
0.008093
0.008275
0.008414
0.008513
0.008576
0.008607


SCALARS Species_2 float 1 
LOOKUP_TABLE default 
0.000280
0.000831
0.001352
0.001828
0.002245
0.002591
0.002860
0.003049
0.003160
0.003199
0.003174
0.003096
0.002979
0.002836
0.002682
0.002531
0.002394
0.002281
0.002202
0.002160
0.000286
0.000848
0.001380
0.001866
0.002292
0.002645
0.002919
0.003113
0.003227
0.003267
0.003242
0.003163
0.003044
0.002899
0.002742
0.002588
0.002448
0.002333
0.002252
0.002211
0.000298
0.000882
0.001436
0.001942
0.002384
0.002752
0.003038
0.003239
0.003358
0.003400
0.003374
0.003292
0.003169
0.003019
0.002856
0.002696
0.002551
0.002432
0.002348
0.002304
0.000315
0.000933