# vtk DataFile Version 2.0
generated by CFD-lab course output (written by Tobias Neckel) 
ASCII

DATASET STRUCTURED_GRID
DIMENSIONS  21 21 1 
POINTS 441 float

0.000000 0.000000 0
0.100000 0.000000 0
0.200000 0.000000 0
0.300000 0.000000 0
0.400000 0.000000 0
0.500000 0.000000 0
0.600000 0.000000 0
0.700000 0.000000 0
0.800000 0.000000 0
0.900000 0.000000 0
1.000000 0.000000 0
1.100000 0.000000 0
1.200000 0.000000 0
1.300000 0.000000 0
1.400000 0.000000 0
1.500000 0.000000 0
1.600000 0.000000 0
1.700000 0.000000 0
1.800000 0.000000 0
1.900000 0.000000 0
2.000000 0.000000 0
0.000000 0.100000 0
0.100000 0.100000 0
0.200000 0.100000 0
0.300000 0.100000 0
0.400000 0.100000 0
0.500000 0.100000 0
0.600000 0.100000 0
0.700000 0.100000 0
0.800000 0.100000 0
0.900000 0.100000 0
1.000000 0.100000 0
1.100000 0.100000 0
1.200000 0.100000 0
1.300000 0.100000 0
1.400000 0.100000 0
1.500000 0.100000 0
1.600000 0.100000 0
1.700000 0.100000 0
1.800000 0.100000 0
1.900000 0.100000 0
2.000000 0.100000 0
0.000000 0.200000 0
0.100000 0.200000 0
0.200000 0.200000 0
0.300000 0.200000 0
0.400000 0.200000 0
0.500000 0.200000 0
0.600000 0.200000 0
0.700000 0.200000 0
0.800000 0.200000 0
0.900000 0.200000 0
1.000000 0.200000 0
1.100000 0.200000 0
1.200000 0.200000 0
1.300000 0.200000 0
1.400000 0.200000 0
1.500000 0.200000 0
1.600000 0.200000 0
1.700000 0.200000 0
1.800000 0.200000 0
1.900000 0.200000 0
2.000000 0.200000 0
0.000000 0.300000 0
0.100000 0.300000 0
0.200000 0.300000 0
0.300000 0.300000 0
0.400000 0.300000 0
0.500000 0.300000 0
0.600000 0.300000 0
0.700000 0.300000 0
0.800000 0.300000 0
0.900000 0.300000 0
1.000000 0.300000 0
1.100000 0.300000 0
1.200000 0.300000 0
1.300000 0.300000 0
1.400000 0.300000 0
1.500000 0.300000 0
1.600000 0.300000 0
1.700000 0.300000 0
1.800000 0.300000 0
1.900000 0.300000 0
2.000000 0.300000 0
0.000000 0.400000 0
0.100000 0.400000 0
0.200000 0.400000 0
0.300000 0.400000 0
0.400000 0.400000 0
0.500000 0.400000 0
0.600000 0.400000 0
0.700000 0.400000 0
0.800000 0.400000 0
0.900000 0.400000 0
1.000000 0.400000 0
1.100000 0.400000 0
1.200000 0.400000 0
1.300000 0.400000 0
1.400000 0.400000 0
1.500000 0.400000 0
1.600000 0.400000 0
1.700000 0.400000 0
1.800000 0.400000 0
1.900000 0.400000 0
2.000000 0.400000 0
0.000000 0.500000 0
0.100000 0.500000 0
0.200000 0.500000 0
0.300000 0.500000 0
0.400000 0.500000 0
0.500000 0.500000 0
0.600000 0.500000 0
0.700000 0.500000 0
0.800000 0.500000 0
0.900000 0.500000 0
1.000000 0.500000 0
1.100000 0.500000 0
1.200000 0.500000 0
1.300000 0.500000 0
1.400000 0.500000 0
1.500000 0.500000 0
1.600000 0.500000 0
1.700000 0.500000 0
1.800000 0.500000 0
1.900000 0.500000 0
2.000000 0.500000 0
0.000000 0.600000 0
0.100000 0.600000 0
0.200000 0.600000 0
0.300000 0.600000 0
0.400000 0.600000 0
0.500000 0.600000 0
0.600000 0.600000 0
0.700000 0.600000 0
0.800000 0.600000 0
0.900000 0.600000 0
1.000000 0.600000 0
1.100000 0.600000 0
1.200000 0.600000 0
1.300000 0.600000 0
1.400000 0.600000 0
1.500000 0.600000 0
1.600000 0.600000 0
1.700000 0.600000 0
1.800000 0.600000 0
1.900000 0.600000 0
2.000000 0.600000 0
0.000000 0.700000 0
0.100000 0.700000 0
0.200000 0.700000 0
0.300000 0.700000 0
0.400000 0.700000 0
0.500000 0.700000 0
0.600000 0.700000 0
0.700000 0.700000 0
0.800000 0.700000 0
0.900000 0.700000 0
1.000000 0.700000 0
1.100000 0.700000 0
1.200000 0.700000 0
1.300000 0.700000 0
1.400000 0.700000 0
1.500000 0.700000 0
1.600000 0.700000 0
1.700000 0.700000 0
1.800000 0.700000 0
1.900000 0.700000 0
2.000000 0.700000 0
0.000000 0.800000 0
0.100000 0.800000 0
0.200000 0.800000 0
0.300000 0.800000 0
0.400000 0.800000 0
0.500000 0.800000 0
0.600000 0.800000 0
0.700000 0.800000 0
0.800000 0.800000 0
0.900000 0.800000 0
1.000000 0.800000 0
1.100000 0.800000 0
1.200000 0.800000 0
1.300000 0.800000 0
1.400000 0.800000 0
1.500000 0.800000 0
1.600000 0.800000 0
1.700000 0.800000 0
1.800000 0.800000 0
1.900000 0.800000 0
2.000000 0.800000 0
0.000000 0.900000 0
0.100000 0.900000 0
0.200000 0.900000 0
0.300000 0.900000 0
0.400000 0.900000 0
0.500000 0.900000 0
0.600000 0.900000 0
0.700000 0.900000 0
0.800000 0.900000 0
0.900000 0.900000 0
1.000000 0.900000 0
1.100000 0.900000 0
1.200000 0.900000 0
1.300000 0.900000 0
1.400000 0.900000 0
1.500000 0.900000 0
1.600000 0.900000 0
1.700000 0.900000 0
1.800000 0.900000 0
1.900000 0.900000 0
2.000000 0.900000 0
0.000000 1.000000 0
0.100000 1.000000 0
0.200000 1.000000 0
0.300000 1.000000 0
0.400000 1.000000 0
0.500000 1.000000 0
0.600000 1.000000 0
0.700000 1.000000 0
0.800000 1.000000 0
0.900000 1.000000 0
1.000000 1.000000 0
1.100000 1.000000 0
1.200000 1.000000 0
1.300000 1.000000 0
1.400000 1.000000 0
1.500000 1.000000 0
1.600000 1.000000 0
1.700000 1.000000 0
1.800000 1.000000 0
1.900000 1.000000 0
2.000000 1.000000 0
0.000000 1.100000 0
0.100000 1.100000 0
0.200000 1.100000 0
0.300000 1.100000 0
0.400000 1.100000 0
0.500000 1.100000 0
0.600000 1.100000 0
0.700000 1.100000 0
0.800000 1.100000 0
0.900000 1.100000 0
1.000000 1.100000 0
1.100000 1.100000 0
1.200000 1.100000 0
1.300000 1.100000 0
1.400000 1.100000 0
1.500000 1.100000 0
1.600000 1.100000 0
1.700000 1.100000 0
1.800000 1.100000 0
1.900000 1.100000 0
2.000000 1.100000 0
0.000000 1.200000 0
0.100000 1.200000 0
0.200000 1.200000 0
0.300000 1.200000 0
0.400000 1.200000 0
0.500000 1.200000 0
0.600000 1.200000 0
0.700000 1.200000 0
0.800000 1.200000 0
0.900000 1.200000 0
1.000000 1.200000 0
1.100000 1.200000 0
1.200000 1.200000 0
1.300000 1.200000 0
1.400000 1.200000 0
1.500000 1.200000 0
1.600000 1.200000 0
1.700000 1.200000 0
1.800000 1.200000 0
1.900000 1.200000 0
2.000000 1.200000 0
0.000000 1.300000 0
0.100000 1.300000 0
0.200000 1.300000 0
0.300000 1.300000 0
0.400000 1.300000 0
0.500000 1.300000 0
0.600000 1.300000 0
0.700000 1.300000 0
0.800000 1.300000 0
0.900000 1.300000 0
1.000000 1.300000 0
1.100000 1.300000 0
1.200000 1.300000 0
1.300000 1.300000 0
1.400000 1.300000 0
1.500000 1.300000 0
1.600000 1.300000 0
1.700000 1.300000 0
1.800000 1.300000 0
1.900000 1.300000 0
2.000000 1.300000 0
0.000000 1.400000 0
0.100000 1.400000 0
0.200000 1.400000 0
0.300000 1.400000 0
0.400000 1.400000 0
0.500000 1.400000 0
0.600000 1.400000 0
0.700000 1.400000 0
0.800000 1.400000 0
0.900000 1.400000 0
1.000000 1.400000 0
1.100000 1.400000 0
1.200000 1.400000 0
1.300000 1.400000 0
1.400000 1.400000 0
1.500000 1.400000 0
1.600000 1.400000 0
1.700000 1.400000 0
1.800000 1.400000 0
1.900000 1.400000 0
2.000000 1.400000 0
0.000000 1.500000 0
0.100000 1.500000 0
0.200000 1.500000 0
0.300000 1.500000 0
0.400000 1.500000 0
0.500000 1.500000 0
0.600000 1.500000 0
0.700000 1.500000 0
0.800000 1.500000 0
0.900000 1.500000 0
1.000000 1.500000 0
1.100000 1.500000 0
1.200000 1.500000 0
1.300000 1.500000 0
1.400000 1.500000 0
1.500000 1.500000 0
1.600000 1.500000 0
1.700000 1.500000 0
1.800000 1.500000 0
1.900000 1.500000 0
2.000000 1.500000 0
0.000000 1.600000 0
0.100000 1.600000 0
0.200000 1.600000 0
0.300000 1.600000 0
0.400000 1.600000 0
0.500000 1.600000 0
0.600000 1.600000 0
0.700000 1.600000 0
0.800000 1.600000 0
0.900000 1.600000 0
1.000000 1.600000 0
1.100000 1.600000 0
1.200000 1.600000 0
1.300000 1.600000 0
1.400000 1.600000 0
1.500000 1.600000 0
1.600000 1.600000 0
1.700000 1.600000 0
1.800000 1.600000 0
1.900000 1.600000 0
2.000000 1.600000 0
0.000000 1.700000 0
0.100000 1.700000 0
0.200000 1.700000 0
0.300000 1.700000 0
0.400000 1.700000 0
0.500000 1.700000 0
0.600000 1.700000 0
0.700000 1.700000 0
0.800000 1.700000 0
0.900000 1.700000 0
1.000000 1.700000 0
1.100000 1.700000 0
1.200000 1.700000 0
1.300000 1.700000 0
1.400000 1.700000 0
1.500000 1.700000 0
1.600000 1.700000 0
1.700000 1.700000 0
1.800000 1.700000 0
1.900000 1.700000 0
2.000000 1.700000 0
0.000000 1.800000 0
0.100000 1.800000 0
0.200000 1.800000 0
0.300000 1.800000 0
0.400000 1.800000 0
0.500000 1.800000 0
0.600000 1.800000 0
0.700000 1.800000 0
0.800000 1.800000 0
0.900000 1.800000 0
1.000000 1.800000 0
1.100000 1.800000 0
1.200000 1.800000 0
1.300000 1.800000 0
1.400000 1.800000 0
1.500000 1.800000 0
1.600000 1.800000 0
1.700000 1.800000 0
1.800000 1.800000 0
1.900000 1.800000 0
2.000000 1.800000 0
0.000000 1.900000 0
0.100000 1.900000 0
0.200000 1.900000 0
0.300000 1.900000 0
0.400000 1.900000 0
0.500000 1.900000 0
0.600000 1.900000 0
0.700000 1.900000 0
0.800000 1.900000 0
0.900000 1.900000 0
1.000000 1.900000 0
1.100000 1.900000 0
1.200000 1.900000 0
1.300000 1.900000 0
1.400000 1.900000 0
1.500000 1.900000 0
1.600000 1.900000 0
1.700000 1.900000 0
1.800000 1.900000 0
1.900000 1.900000 0
2.000000 1.900000 0
0.000000 2.000000 0
0.100000 2.000000 0
0.200000 2.000000 0
0.300000 2.000000 0
0.400000 2.000000 0
0.500000 2.000000 0
0.600000 2.000000 0
0.700000 2.000000 0
0.800000 2.000000 0
0.900000 2.000000 0
1.000000 2.000000 0
1.100000 2.000000 0
1.200000 2.000000 0
1.300000 2.000000 0
1.400000 2.000000 0
1.500000 2.000000 0
1.600000 2.000000 0
1.700000 2.000000 0
1.800000 2.000000 0
1.900000 2.000000 0
2.000000 2.000000 0
POINT_DATA 441 

VECTORS velocity float
0.000000 0.000000 0
-0.000005 0.000000 0
-0.000004 0.000000 0
-0.000004 0.000000 0
-0.000004 0.000000 0
-0.000003 0.000000 0
-0.000003 0.000000 0
-0.000003 0.000000 0
-0.000002 0.000000 0
-0.000002 0.000000 0
-0.000002 0.000000 0
-0.000002 0.000000 0
-0.000001 0.000000 0
-0.000001 0.000000 0
-0.000001 0.000000 0
-0.000001 0.000000 0
-0.000001 0.000000 0
-0.000000 0.000000 0
-0.000000 0.000000 0
-0.000000 0.000000 0
0.000000 0.000000 0
0.000000 -0.000007 0
-0.000009 -0.000013 0
-0.000008 -0.000012 0
-0.000008 -0.000012 0
-0.000007 -0.000011 0
-0.000006 -0.000011 0
-0.000006 -0.000011 0
-0.000005 -0.000010 0
-0.000005 -0.000010 0
-0.000004 -0.000010 0
-0.000004 -0.000009 0
-0.000003 -0.000009 0
-0.000003 -0.000009 0
-0.000002 -0.000009 0
-0.000002 -0.000008 0
-0.000002 -0.000008 0
-0.000001 -0.000008 0
-0.000001 -0.000008 0
-0.000001 -0.000008 0
-0.000000 -0.000008 0
0.000000 -0.000004 0
0.000000 -0.000008 0
-0.000008 -0.000016 0
-0.000008 -0.000015 0
-0.000007 -0.000014 0
-0.000006 -0.000014 0
-0.000006 -0.000013 0
-0.000005 -0.000013 0
-0.000005 -0.000012 0
-0.000004 -0.000012 0
-0.000004 -0.000012 0
-0.000004 -0.000011 0
-0.000003 -0.000011 0
-0.000003 -0.000011 0
-0.000002 -0.000010 0
-0.000002 -0.000010 0
-0.000002 -0.000010 0
-0.000001 -0.000010 0
-0.000001 -0.000010 0
-0.000001 -0.000010 0
-0.000000 -0.000010 0
0.000000 -0.000005 0
0.000000 -0.000009 0
-0.000008 -0.000018 0
-0.000007 -0.000017 0
-0.000006 -0.000017 0
-0.000006 -0.000016 0
-0.000005 -0.000015 0
-0.000005 -0.000015 0
-0.000004 -0.000014 0
-0.000004 -0.000014 0
-0.000004 -0.000013 0
-0.000003 -0.000013 0
-0.000003 -0.000013 0
-0.000002 -0.000012 0
-0.000002 -0.000012 0
-0.000002 -0.000012 0
-0.000001 -0.000012 0
-0.000001 -0.000012 0
-0.000001 -0.000011 0
-0.000001 -0.000011 0
-0.000000 -0.000011 0
0.000000 -0.000006 0
0.000000 -0.000010 0
-0.000007 -0.000020 0
-0.000006 -0.000019 0
-0.000006 -0.000018 0
-0.000005 -0.000017 0
-0.000005 -0.000017 0
-0.000004 -0.000016 0
-0.000004 -0.000016 0
-0.000004 -0.000015 0
-0.000003 -0.000015 0
-0.000003 -0.000014 0
-0.000002 -0.000014 0
-0.000002 -0.000014 0
-0.000002 -0.000013 0
-0.000002 -0.000013 0
-0.000001 -0.000013 0
-0.000001 -0.000013 0
-0.000001 -0.000013 0
-0.000000 -0.000013 0
-0.000000 -0.000013 0
0.000000 -0.000006 0
0.000000 -0.000011 0
-0.000006 -0.000021 0
-0.000005 -0.000020 0
-0.000005 -0.000019 0
-0.000004 -0.000019 0
-0.000004 -0.000018 0
-0.000004 -0.000017 0
-0.000003 -0.000017 0
-0.000003 -0.000016 0
-0.000003 -0.000016 0
-0.000002 -0.000015 0
-0.000002 -0.000015 0
-0.000002 -0.000014 0
-0.000002 -0.000014 0
-0.000001 -0.000014 0
-0.000001 -0.000014 0
-0.000001 -0.000014 0
-0.000001 -0.000014 0
-0.000000 -0.000013 0
-0.000000 -0.000013 0
0.000000 -0.000007 0
0.000000 -0.000011 0
-0.000005 -0.000022 0
-0.000004 -0.000021 0
-0.000004 -0.000020 0
-0.000004 -0.000019 0
-0.000003 -0.000019 0
-0.000003 -0.000018 0
-0.000003 -0.000017 0
-0.000003 -0.000017 0
-0.000002 -0.000016 0
-0.000002 -0.000016 0
-0.000002 -0.000015 0
-0.000002 -0.000015 0
-0.000001 -0.000015 0
-0.000001 -0.000015 0
-0.000001 -0.000014 0
-0.000001 -0.000014 0
-0.000001 -0.000014 0
-0.000000 -0.000014 0
-0.000000 -0.000014 0
0.000000 -0.000007 0
0.000000 -0.000012 0
-0.000003 -0.000023 0
-0.000003 -0.000022 0
-0.000003 -0.000021 0
-0.000003 -0.000020 0
-0.000003 -0.000019 0
-0.000002 -0.000018 0
-0.000002 -0.000018 0
-0.000002 -0.000017 0
-0.000002 -0.000017 0
-0.000002 -0.000016 0
-0.000001 -0.000016 0
-0.000001 -0.000015 0
-0.000001 -0.000015 0
-0.000001 -0.000015 0
-0.000001 -0.000015 0
-0.000001 -0.000015 0
-0.000000 -0.000014 0
-0.000000 -0.000014 0
-0.000000 -0.000014 0
0.000000 -0.000007 0
0.000000 -0.000012 0
-0.000002 -0.000023 0
-0.000002 -0.000022 0
-0.000002 -0.000021 0
-0.000002 -0.000020 0
-0.000002 -0.000019 0
-0.000002 -0.000018 0
-0.000002 -0.000018 0
-0.000001 -0.000017 0
-0.000001 -0.000017 0
-0.000001 -0.000016 0
-0.000001 -0.000016 0
-0.000001 -0.000015 0
-0.000001 -0.000015 0
-0.000001 -0.000015 0
-0.000001 -0.000015 0
-0.000000 -0.000014 0
-0.000000 -0.000014 0
-0.000000 -0.000014 0
-0.000000 -0.000014 0
0.000000 -0.000007 0
0.000000 -0.000011 0
-0.000001 -0.000022 0
-0.000001 -0.000021 0
-0.000001 -0.000020 0
-0.000001 -0.000019 0
-0.000001 -0.000019 0
-0.000001 -0.000018 0
-0.000001 -0.000017 0
-0.000001 -0.000017 0
-0.000001 -0.000016 0
-0.000001 -0.000016 0
-0.000001 -0.000015 0
-0.000001 -0.000015 0
-0.000001 -0.000015 0
-0.000000 -0.000015 0
-0.000000 -0.000014 0
-0.000000 -0.000014 0
-0.000000 -0.000014 0
-0.000000 -0.000014 0
-0.000000 -0.000014 0
0.000000 -0.000007 0
0.000000 -0.000011 0
-0.000000 -0.000021 0
-0.000000 -0.000020 0
-0.000000 -0.000019 0
-0.000000 -0.000019 0
-0.000000 -0.000018 0
-0.000000 -0.000017 0
-0.000000 -0.000017 0
-0.000000 -0.000016 0
-0.000000 -0.000016 0
-0.000000 -0.000015 0
-0.000000 -0.000015 0
-0.000000 -0.000014 0
-0.000000 -0.000014 0
-0.000000 -0.000014 0
-0.000000 -0.000014 0
-0.000000 -0.000014 0
-0.000000 -0.000014 0
-0.000000 -0.000013 0
-0.000000 -0.000013 0
0.000000 -0.000007 0
0.000000 -0.000010 0
0.000001 -0.000020 0
0.000001 -0.000019 0
0.000000 -0.000018 0
0.000000 -0.000017 0
0.000000 -0.000017 0
0.000000 -0.000016 0
0.000000 -0.000016 0
0.000000 -0.000015 0
0.000000 -0.000015 0
-0.000000 -0.000014 0
-0.000000 -0.000014 0
-0.000000 -0.000014 0
-0.000000 -0.000013 0
-0.000000 -0.000013 0
-0.000000 -0.000013 0
-0.000000 -0.000013 0
-0.000000 -0.000013 0
-0.000000 -0.000013 0
-0.000000 -0.000013 0
0.000000 -0.000006 0
0.000000 -0.000009 0
0.000002 -0.000018 0
0.000001 -0.000018 0
0.000001 -0.000017 0
0.000001 -0.000016 0
0.000001 -0.000015 0
0.000001 -0.000015 0
0.000001 -0.000014 0
0.000001 -0.000014 0
0.000000 -0.000013 0
0.000000 -0.000013 0
0.000000 -0.000013 0
0.000000 -0.000013 0
0.000000 -0.000012 0
0.000000 -0.000012 0
0.000000 -0.000012 0
0.000000 -0.000012 0
0.000000 -0.000012 0
0.000000 -0.000012 0
0.000000 -0.000012 0
0.000000 -0.000006 0
0.000000 -0.000008 0
0.000003 -0.000017 0
0.000002 -0.000016 0
0.000002 -0.000015 0
0.000002 -0.000014 0
0.000001 -0.000014 0
0.000001 -0.000013 0
0.000001 -0.000013 0
0.000001 -0.000012 0
0.000001 -0.000012 0
0.000001 -0.000012 0
0.000001 -0.000012 0
0.000000 -0.000011 0
0.000000 -0.000011 0
0.000000 -0.000011 0
0.000000 -0.000011 0
0.000000 -0.000011 0
0.000000 -0.000011 0
0.000000 -0.000010 0
0.000000 -0.000010 0
0.000000 -0.000005 0
0.000000 -0.000007 0
0.000003 -0.000014 0
0.000003 -0.000014 0
0.000003 -0.000013 0
0.000002 -0.000013 0
0.000002 -0.000012 0
0.000002 -0.000012 0
0.000002 -0.000011 0
0.000001 -0.000011 0
0.000001 -0.000011 0
0.000001 -0.000010 0
0.000001 -0.000010 0
0.000001 -0.000010 0
0.000001 -0.000010 0
0.000000 -0.000010 0
0.000000 -0.000009 0
0.000000 -0.000009 0
0.000000 -0.000009 0
0.000000 -0.000009 0
0.000000 -0.000009 0
0.000000 -0.000005 0
0.000000 -0.000006 0
0.000004 -0.000012 0
0.000004 -0.000012 0
0.000003 -0.000011 0
0.000003 -0.000011 0
0.000002 -0.000010 0
0.000002 -0.000010 0
0.000002 -0.000010 0
0.000002 -0.000009 0
0.000001 -0.000009 0
0.000001 -0.000009 0
0.000001 -0.000008 0
0.000001 -0.000008 0
0.000001 -0.000008 0
0.000001 -0.000008 0
0.000000 -0.000008 0
0.000000 -0.000008 0
0.000000 -0.000008 0
0.000000 -0.000008 0
0.000000 -0.000008 0
0.000000 -0.000004 0
0.000000 -0.000005 0
0.000004 -0.000010 0
0.000004 -0.000009 0
0.000004 -0.000009 0
0.000003 -0.000009 0
0.000003 -0.000008 0
0.000002 -0.000008 0
0.000002 -0.000008 0
0.000002 -0.000007 0
0.000002 -0.000007 0
0.000001 -0.000007 0
0.000001 -0.000007 0
0.000001 -0.000007 0
0.000001 -0.000007 0
0.000001 -0.000006 0
0.000001 -0.000006 0
0.000000 -0.000006 0
0.000000 -0.000006 0
0.000000 -0.000006 0
0.000000 -0.000006 0
0.000000 -0.000003 0
0.000000 -0.000004 0
0.000005 -0.000007 0
0.000004 -0.000007 0
0.000004 -0.000007 0
0.000003 -0.000006 0
0.000003 -0.000006 0
0.000003 -0.000006 0
0.000002 -0.000006 0
0.000002 -0.000006 0
0.000002 -0.000005 0
0.000002 -0.000005 0
0.000001 -0.000005 0
0.000001 -0.000005 0
0.000001 -0.000005 0
0.000001 -0.000005 0
0.000001 -0.000005 0
0.000000 -0.000005 0
0.000000 -0.000005 0
0.000000 -0.000005 0
0.000000 -0.000005 0
0.000000 -0.000002 0
0.000000 -0.000002 0
0.000005 -0.000005 0
0.000005 -0.000005 0
0.000004 -0.000004 0
0.000004 -0.000004 0
0.000003 -0.000004 0
0.000003 -0.000004 0
0.000003 -0.000004 0
0.000002 -0.000004 0
0.000002 -0.000004 0
0.000002 -0.000003 0
0.000001 -0.000003 0
0.000001 -0.000003 0
0.000001 -0.000003 0
0.000001 -0.000003 0
0.000001 -0.000003 0
0.000001 -0.000003 0
0.000000 -0.000003 0
0.000000 -0.000003 0
0.000000 -0.000003 0
0.000000 -0.000002 0
0.000000 -0.000001 0
0.000005 -0.000002 0
0.000005 -0.000002 0
0.000004 -0.000002 0
0.000004 -0.000002 0
0.000003 -0.000002 0
0.000003 -0.000002 0
0.000003 -0.000002 0
0.000002 -0.000002 0
0.000002 -0.000002 0
0.000002 -0.000002 0
0.000001 -0.000002 0
0.000001 -0.000002 0
0.000001 -0.000002 0
0.000001 -0.000002 0
0.000001 -0.000002 0
0.000001 -0.000002 0
0.000000 -0.000002 0
0.000000 -0.000002 0
0.000000 -0.000002 0
0.000000 -0.000001 0
0.000000 0.000000 0
0.000003 0.000000 0
0.000002 0.000000 0
0.000002 0.000000 0
0.000002 0.000000 0
0.000002 0.000000 0
0.000002 0.000000 0
0.000001 0.000000 0
0.000001 0.000000 0
0.000001 0.000000 0
0.000001 0.000000 0
0.000001 0.000000 0
0.000001 0.000000 0
0.000001 0.000000 0
0.000000 0.000000 0
0.000000 0.000000 0
0.000000 0.000000 0
0.000000 0.000000 0
0.000000 0.000000 0
0.000000 0.000000 0
0.000000 0.000000 0

CELL_DATA 400 
SCALARS pressure float 1 
LOOKUP_TABLE default 
0.241964
0.241995
0.242024
0.242051
0.242075
0.242097
0.242117
0.242135
0.242152
0.242166
0.242179
0.242191
0.242201
0.242209
0.242216
0.242222
0.242227
0.242230
0.242232
0.242233
0.219009
0.219038
0.219065
0.219090
0.219112
0.219133
0.219151
0.219168
0.219184
0.219197
0.219210
0.219220
0.219230
0.219238
0.219244
0.219250
0.219254
0.219257
0.219259
0.219260
0.196063
0.196090
0.196114
0.196137
0.196157
0.196176
0.196193
0.196209
0.196223
0.196235
0.196246
0.196256
0.196265
0.196272
0.196278
0.196283
0.196287
0.196290
0.196292
0.196293
0.173125
0.173149
0.173170
0.173190
0.173209
0.173226
0.173241
0.173255
0.173267
0.173279
0.173289
0.173298
0.173305
0.173312
0.173317
0.173322
0.173325
0.173328
0.173330
0.173330
0.150193
0.150214
0.150233
0.150250
0.150266
0.150280
0.150294
0.150306
0.150317
0.150327
0.150335
0.150343
0.150350
0.150356
0.150361
0.150365
0.150368
0.150370
0.150371
0.150372
0.127266
0.127283
0.127299
0.127313
0.127327
0.127339
0.127350
0.127360
0.127370
0.127378
0.127385
0.127392
0.127398
0.127403
0.127407
0.127410
0.127413
0.127415
0.127416
0.127417
0.104342
0.104356
0.104368
0.104379
0.104390
0.104400
0.104409
0.104417
0.104425
0.104431
0.104438
0.104443
0.104448
0.104452
0.104455
0.104458
0.104460
0.104462
0.104463
0.104463
0.081420
0.081429
0.081438
0.081447
0.081455
0.081462
0.081469
0.081475
0.081481
0.081486
0.081491
0.081495
0.081498
0.081502
0.081504
0.081506
0.081508
0.081509
0.081510
0.081511
0.058497
0.058503
0.058509
0.058514
0.058519
0.058524
0.058529
0.058533
0.058537
0.058540
0.058544
0.058547
0.058549
0.058551
0.058553
0.058555
0.058556
0.058557
0.058558
0.058558
0.035572
0.035575
0.035577
0.035580
0.035582
0.035585
0.035587
0.035589
0.035592
0.035594
0.035596
0.035597
0.035599
0.035600
0.035601
0.035602
0.035603
0.035604
0.035604
0.035604
0.012645
0.012644
0.012643
0.012643
0.012643
0.012643
0.012643
0.012644
0.012644
0.012645
0.012645
0.012646
0.012647
0.012647
0.012648
0.012648
0.012649
0.012649
0.012649
0.012649
-0.010287
-0.010291
-0.010295
-0.010298
-0.010300
-0.010302
-0.010304
-0.010305
-0.010306
-0.010307
-0.010308
-0.010308
-0.010308
-0.010309
-0.010309
-0.010309
-0.010309
-0.010309
-0.010309
-0.010309
-0.033224
-0.033231
-0.033238
-0.033243
-0.033248
-0.033252
-0.033255
-0.033258
-0.033261
-0.033263
-0.033265
-0.033266
-0.033267
-0.033268
-0.033269
-0.033269
-0.033270
-0.033270
-0.033270
-0.033270
-0.056168
-0.056178
-0.056186
-0.056194
-0.056201
-0.056206
-0.056212
-0.056216
-0.056220
-0.056223
-0.056226
-0.056228
-0.056230
-0.056232
-0.056233
-0.056234
-0.056235
-0.056235
-0.056235
-0.056236
-0.079118
-0.079131
-0.079141
-0.079151
-0.079159
-0.079167
-0.079173
-0.079179
-0.079184
-0.079188
-0.079192
-0.079195
-0.079197
-0.079200
-0.079201
-0.079203
-0.079204
-0.079204
-0.079205
-0.079205
-0.102077
-0.102091
-0.102104
-0.102115
-0.102125
-0.102133
-0.102141
-0.102148
-0.102154
-0.102159
-0.102163
-0.102167
-0.102170
-0.102173
-0.102175
-0.102176
-0.102178
-0.102179
-0.102179
-0.102180
-0.125043
-0.125059
-0.125073
-0.125086
-0.125097
-0.125107
-0.125115
-0.125123
-0.125129
-0.125135
-0.125140
-0.125144
-0.125148
-0.125151
-0.125153
-0.125155
-0.125157
-0.125158
-0.125159
-0.125159
-0.148018
-0.148035
-0.148050
-0.148064
-0.148076
-0.148086
-0.148096
-0.148104
-0.148111
-0.148118
-0.148123
-0.148128
-0.148132
-0.148135
-0.148137
-0.148140
-0.148141
-0.148142
-0.148143
-0.148144
-0.171002
-0.171020
-0.171035
-0.171049
-0.171062
-0.171073
-0.171083
-0.171092
-0.171099
-0.171106
-0.171112
-0.171117
-0.171121
-0.171124
-0.171127
-0.171129
-0.171131
-0.171132
-0.171133
-0.171133
-0.193994
-0.194012
-0.194028
-0.194042
-0.194055
-0.194067
-0.194077
-0.194086
-0.194093
-0.194100
-0.194106
-0.194111
-0.194115
-0.194119
-0.194122
-0.194124
-0.194126
-0.194127
-0.194128
-0.194128

SCALARS temperature float 1 
LOOKUP_TABLE default 
0.000000
0.000000
0.000000
0.000000
0.000000
0.000000
0.000000
0.000000
0.000000
0.000000
0.000000
0.000000
0.000000
0.000000
0.000000
0.000000
0.000000
0.000000
0.000000
0.000000
0.000000
0.000000
0.000000
0.000000
0.000000
0.000000
0.000000
0.000000
0.000000
0.000000
0.000000
0.000000
0.000000
0.000000
0.000000
0.000000
0.000000
0.000000
0.000000
0.000000
0.000000
0.000000
0.000000
0.000000
0.000000
0.000000
0.000000
0.000000
0.000000
0.000000
0.000000
0.000000
0.000000
0.000000
0.000000
0.000000
0.000000
0.000000
0.000000
0.000000
0.000000
0.000000
0.000000
0.000000
0.000000
0.000000
0.000000
0.000000
0.000000
0.000000
0.000000
0.000000
0.000000
0.000000
0.000000
0.000000
0.000000
0.000000
0.000000
0.000000
0.000000
0.000000
0.000000
0.000000
0.000000
0.000000
0.000000
0.000000
0.000000
0.000000
0.000000
0.000000
0.000000
0.000000
0.000000
0.000000
0.000000
0.000000
0.000000
0.000000
0.000000
0.000000
0.000000
0.000000
0.000000
0.000000
0.000000
0.000000
0.000000
0.000000
0.000000
0.000000
0.000000
0.000000
0.000000
0.000000
0.000000
0.000000
0.000000
0.000000
0.000000
0.000000
0.000000
0.000000
0.000000
0.000000
0.000000
0.000000
0.000000
0.000000
0.000000
0.000000
0.000000
0.000000
0.000000
0.000000
0.000000
0.000000
0.000000
0.000000
0.000000
0.000000
0.000000
0.000000
0.000000
0.000000
0.000000
0.000000
0.000000
0.000000
0.000000
0.000000
0.000000
0.000000
0.000000
0.000000
0.000000
0.000000
0.000000
0.000000
0.000000
0.000000
0.000000
0.000000
0.000000
0.000000
0.000000
0.000000
0.000000
0.000000
0.000000
0.000000
0.000000
0.000000
0.000000
0.000000
0.000000
0.000000
0.000000
0.000000
0.000000
0.000000
0.000000
0.000000
0.000000
0.000000
0.000000
0.000000
0.000000
0.000000
0.000000
0.000000
0.000000
0.000000
0.000000
0.000000
0.000000
0.000000
0.000000
0.000000
0.000000
0.000000
0.000000
0.000000
0.000000
0.000000
0.000000
0.000000
0.000000
0.000000
0.000000
0.000000
0.000000
0.000000
0.000000
0.000000
0.000000
0.000000
0.000000
0.000000
0.000000
0.000000
0.000000
0.000000
0.000000
0.000000
0.000000
0.000000
0.000000
0.000000
0.000000
0.000000
0.000000
0.000000
0.000000
0.000000
0.000000
0.000000
0.000000
0.000000
0.000000
0.000000
0.000000
0.000000
0.000000
0.000000
0.000000
0.000000
0.000000
0.000000
0.000000
0.000000
0.000000
0.000000
0.000000
0.000000
0.000000
0.000000
0.000000
0.000000
0.000000
0.000000
0.000000
0.000000
0.000000
0.000000
0.000000
0.000000
0.000000
0.000000
0.000000
0.000000
0.000000
0.000000
0.000000
0.000000
0.000000
0.000000
0.000000
0.000000
0.000000
0.000000
0.000000
0.000000
0.000000
0.000000
0.000000
0.000000
0.000000
0.000000
0.000000
0.000000
0.000000
0.000000
0.000000
0.000000
0.000000
0.000000
0.000000
0.000000
0.000000
0.000000
0.000000
0.000000
0.000000
0.000000
0.000000
0.000000
0.000000
0.000000
0.000000
0.000000
0.000000
0.000000
0.000000
0.000000
0.000000
0.000000
0.000000
0.000000
0.000000
0.000000
0.000000
0.000000
0.000000
0.000000
0.000000
0.000000
0.000000
0.000000
0.000000
0.000000
0.000000
0.000000
0.000000
0.000000
0.000000
0.000000
0.000000
0.000000
0.000000
0.000000
0.000000
0.000000
0.000000
0.000000
0.000000
0.000000
0.000000
0.000000
0.000000
0.000000
0.000000
0.000000
0.000000
0.000000
0.000000
0.000000
0.000000
0.000000
0.000000
0.000000
0.000000
0.000000
0.000000
0.000000
0.000000
0.000000
0.000000
0.000000
0.000000
0.000000
0.000000
0.000000
0.000000
0.000000
0.000000
0.000000
0.000000
0.000000
0.000000
0.000000
0.000000
0.000000
0.000000
0.000000
0.000000
0.000000
0.000000
0.000000
0.000000
0.000000
0.000000
0.000000
0.000000
0.000000
0.000000
0.000000
0.000000
0.000000


SCALARS Species_1 float 1 
LOOKUP_TABLE default 
0.000000
0.000000
0.000000
0.000000
0.000000
0.000000
0.000000
0.000000
0.000000
0.000000
0.000000
0.000000
0.000000
0.000000
0.000000
0.000000
0.000000
0.000000
0.000000
0.000000
0.000000
0.000000
0.000000
0.000000
0.000000
0.000000
0.000000
0.000000
0.000000
0.000000
0.000000
0.000000
0.000000
0.000000
0.000000
0.000000
0.000000
0.000000
0.000000
0.000000
0.000000
0.000000
0.000000
0.000000
0.000000
0.000000
0.000000
0.000000
0.000000
0.000000
0.000000
0.000000
0.000000
0.000000
0.000000
0.000000
0.000000
0.000000
0.000000
0.000000
0.000000
0.000000
0.000000
0.000000
0.000000
0.000000
0.000000
0.000000
0.000000
0.000000
0.000000
0.000000
0.000000
0.000000
0.000000
0.000000
0.000000
0.000000
0.000000
0.000000
0.000000
0.000000
0.000000
0.000000
0.000000
0.000000
0.000000
0.000000
0.000000
0.000000
0.000000
0.000000
0.000000
0.000000
0.000000
0.000000
0.000000
0.000000
0.000000
0.000000
0.000000
0.000000
0.000000
0.000000
0.000000
0.000000
0.000000
0.000000
0.000000
0.000000
0.000000
0.000000
0.000000
0.000000
0.000000
0.000000
0.000000
0.000000
0.000000
0.000000
0.000000
0.000000
0.000000
0.000000
0.000000
0.000000
0.000000
0.000000
0.000000
0.000000
0.000000
0.012000
0.012360
0.012371
0.000371
0.000011
0.000000
0.000000
0.000000
0.000000
0.000000
0.000000
0.000000
0.000000
0.000000
0.000000
0.000000
0.000000
0.000000
0.000000
0.012000
0.376720
0.387672
0.376001
0.011291
0.000339
0.000010
0.000000
0.000000
0.000000
0.000000
0.000000
0.000000
0.000000
0.000000
0.000000
0.000000
0.000000
0.000000
0.000000
0.012360
0.387672
0.399260
0.387258
0.011956
0.000369
0.000011
0.000000
0.000000
0.000000
0.000000
0.000000
0.000000
0.000000
0.000000
0.000000
0.000000
0.000000
0.000000
0.000000
0.012371
0.376001
0.387258
0.375235
0.011616
0.000360
0.000011
0.000000
0.000000
0.000000
0.000000
0.000000
0.000000
0.000000
0.000000
0.000000
0.000000
0.000000
0.000000
0.000000
0.000371
0.011291
0.011956
0.011616
0.000697
0.000032
0.000001
0.000000
0.000000
0.000000
0.000000
0.000000
0.000000
0.000000
0.000000
0.000000
0.000000
0.000000
0.000000
0.000000
0.000011
0.000339
0.000369
0.000360
0.000032
0.000002
0.000000
0.000000
0.000000
0.000000
0.000000
0.000000
0.000000
0.000000
0.000000
0.000000
0.000000
0.000000
0.000000
0.000000
0.000000
0.000010
0.000011
0.000011
0.000001
0.000000
0.000000
0.000000
0.000000
0.000000
0.000000
0.000000
0.000000
0.000000
0.000000
0.000000
0.000000
0.000000
0.000000
0.000000
0.000000
0.000000
0.000000
0.000000
0.000000
0.000000
0.000000
0.000000
0.000000
0.000000
0.000000
0.000000
0.000000
0.000000
0.000000
0.000000
0.000000
0.000000
0.000000
0.000000
0.000000
0.000000
0.000000
0.000000
0.000000
0.000000
0.000000
0.000000
0.000000
0.000000
0.000000
0.000000
0.000000
0.000000
0.000000
0.000000
0.000000
0.000000
0.000000
0.000000
0.000000
0.000000
0.000000
0.000000
0.000000
0.000000
0.000000
0.000000
0.000000
0.000000
0.000000
0.000000
0.000000
0.000000
0.000000
0.000000
0.000000
0.000000
0.000000
0.000000
0.000000
0.000000
0.000000
0.000000
0.000000
0.000000
0.000000
0.000000
0.000000
0.000000
0.000000
0.000000
0.000000
0.000000
0.000000
0.000000
0.000000
0.000000
0.000000
0.000000
0.000000
0.000000
0.000000
0.000000
0.000000
0.000000
0.000000
0.000000
0.000000
0.000000
0.000000
0.000000
0.000000
0.000000
0.000000
0.000000
0.000000
0.000000
0.000000
0.000000
0.000000
0.000000
0.000000
0.000000
0.000000
0.000000
0.000000
0.000000
0.000000
0.000000
0.000000
0.000000
0.000000
0.000000
0.000000
0.000000
0.000000
0.000000
0.000000
0.000000
0.000000
0.000000
0.000000
0.000000
0.000000
0.000000
0.000000
0.000000
0.000000
0.000000


SCALARS Species_2 float 1 
LOOKUP_TABLE default 
0.000000
0.000000
0.000000
0.000000
0.000000
0.000000
0.000000
0.000000
0.000000
0.000000
0.000000
0.000000
0.000000
0.000000
0.000000
0.000000
0.000000
0.000000
0.000000
0.000000
0.000000
0.000000
0.000000
0.000000
0.000000
0.000000
0.000000
0.000000
0.000000
0.000000
0.000000
0.000000
0.000000
0.000000
0.000000
0.000000
0.000000
0.000000