# vtk DataFile Version 2.0
generated by CFD-lab course output (written by Tobias Neckel) 
ASCII

DATASET STRUCTURED_GRID
DIMENSIONS  21 21 1 
POINTS 441 float

0.000000 0.000000 0
0.100000 0.000000 0
0.200000 0.000000 0
0.300000 0.000000 0
0.400000 0.000000 0
0.500000 0.000000 0
0.600000 0.000000 0
0.700000 0.000000 0
0.800000 0.000000 0
0.900000 0.000000 0
1.000000 0.000000 0
1.100000 0.000000 0
1.200000 0.000000 0
1.300000 0.000000 0
1.400000 0.000000 0
1.500000 0.000000 0
1.600000 0.000000 0
1.700000 0.000000 0
1.800000 0.000000 0
1.900000 0.000000 0
2.000000 0.000000 0
0.000000 0.100000 0
0.100000 0.100000 0
0.200000 0.100000 0
0.300000 0.100000 0
0.400000 0.100000 0
0.500000 0.100000 0
0.600000 0.100000 0
0.700000 0.100000 0
0.800000 0.100000 0
0.900000 0.100000 0
1.000000 0.100000 0
1.100000 0.100000 0
1.200000 0.100000 0
1.300000 0.100000 0
1.400000 0.100000 0
1.500000 0.100000 0
1.600000 0.100000 0
1.700000 0.100000 0
1.800000 0.100000 0
1.900000 0.100000 0
2.000000 0.100000 0
0.000000 0.200000 0
0.100000 0.200000 0
0.200000 0.200000 0
0.300000 0.200000 0
0.400000 0.200000 0
0.500000 0.200000 0
0.600000 0.200000 0
0.700000 0.200000 0
0.800000 0.200000 0
0.900000 0.200000 0
1.000000 0.200000 0
1.100000 0.200000 0
1.200000 0.200000 0
1.300000 0.200000 0
1.400000 0.200000 0
1.500000 0.200000 0
1.600000 0.200000 0
1.700000 0.200000 0
1.800000 0.200000 0
1.900000 0.200000 0
2.000000 0.200000 0
0.000000 0.300000 0
0.100000 0.300000 0
0.200000 0.300000 0
0.300000 0.300000 0
0.400000 0.300000 0
0.500000 0.300000 0
0.600000 0.300000 0
0.700000 0.300000 0
0.800000 0.300000 0
0.900000 0.300000 0
1.000000 0.300000 0
1.100000 0.300000 0
1.200000 0.300000 0
1.300000 0.300000 0
1.400000 0.300000 0
1.500000 0.300000 0
1.600000 0.300000 0
1.700000 0.300000 0
1.800000 0.300000 0
1.900000 0.300000 0
2.000000 0.300000 0
0.000000 0.400000 0
0.100000 0.400000 0
0.200000 0.400000 0
0.300000 0.400000 0
0.400000 0.400000 0
0.500000 0.400000 0
0.600000 0.400000 0
0.700000 0.400000 0
0.800000 0.400000 0
0.900000 0.400000 0
1.000000 0.400000 0
1.100000 0.400000 0
1.200000 0.400000 0
1.300000 0.400000 0
1.400000 0.400000 0
1.500000 0.400000 0
1.600000 0.400000 0
1.700000 0.400000 0
1.800000 0.400000 0
1.900000 0.400000 0
2.000000 0.400000 0
0.000000 0.500000 0
0.100000 0.500000 0
0.200000 0.500000 0
0.300000 0.500000 0
0.400000 0.500000 0
0.500000 0.500000 0
0.600000 0.500000 0
0.700000 0.500000 0
0.800000 0.500000 0
0.900000 0.500000 0
1.000000 0.500000 0
1.100000 0.500000 0
1.200000 0.500000 0
1.300000 0.500000 0
1.400000 0.500000 0
1.500000 0.500000 0
1.600000 0.500000 0
1.700000 0.500000 0
1.800000 0.500000 0
1.900000 0.500000 0
2.000000 0.500000 0
0.000000 0.600000 0
0.100000 0.600000 0
0.200000 0.600000 0
0.300000 0.600000 0
0.400000 0.600000 0
0.500000 0.600000 0
0.600000 0.600000 0
0.700000 0.600000 0
0.800000 0.600000 0
0.900000 0.600000 0
1.000000 0.600000 0
1.100000 0.600000 0
1.200000 0.600000 0
1.300000 0.600000 0
1.400000 0.600000 0
1.500000 0.600000 0
1.600000 0.600000 0
1.700000 0.600000 0
1.800000 0.600000 0
1.900000 0.600000 0
2.000000 0.600000 0
0.000000 0.700000 0
0.100000 0.700000 0
0.200000 0.700000 0
0.300000 0.700000 0
0.400000 0.700000 0
0.500000 0.700000 0
0.600000 0.700000 0
0.700000 0.700000 0
0.800000 0.700000 0
0.900000 0.700000 0
1.000000 0.700000 0
1.100000 0.700000 0
1.200000 0.700000 0
1.300000 0.700000 0
1.400000 0.700000 0
1.500000 0.700000 0
1.600000 0.700000 0
1.700000 0.700000 0
1.800000 0.700000 0
1.900000 0.700000 0
2.000000 0.700000 0
0.000000 0.800000 0
0.100000 0.800000 0
0.200000 0.800000 0
0.300000 0.800000 0
0.400000 0.800000 0
0.500000 0.800000 0
0.600000 0.800000 0
0.700000 0.800000 0
0.800000 0.800000 0
0.900000 0.800000 0
1.000000 0.800000 0
1.100000 0.800000 0
1.200000 0.800000 0
1.300000 0.800000 0
1.400000 0.800000 0
1.500000 0.800000 0
1.600000 0.800000 0
1.700000 0.800000 0
1.800000 0.800000 0
1.900000 0.800000 0
2.000000 0.800000 0
0.000000 0.900000 0
0.100000 0.900000 0
0.200000 0.900000 0
0.300000 0.900000 0
0.400000 0.900000 0
0.500000 0.900000 0
0.600000 0.900000 0
0.700000 0.900000 0
0.800000 0.900000 0
0.900000 0.900000 0
1.000000 0.900000 0
1.100000 0.900000 0
1.200000 0.900000 0
1.300000 0.900000 0
1.400000 0.900000 0
1.500000 0.900000 0
1.600000 0.900000 0
1.700000 0.900000 0
1.800000 0.900000 0
1.900000 0.900000 0
2.000000 0.900000 0
0.000000 1.000000 0
0.100000 1.000000 0
0.200000 1.000000 0
0.300000 1.000000 0
0.400000 1.000000 0
0.500000 1.000000 0
0.600000 1.000000 0
0.700000 1.000000 0
0.800000 1.000000 0
0.900000 1.000000 0
1.000000 1.000000 0
1.100000 1.000000 0
1.200000 1.000000 0
1.300000 1.000000 0
1.400000 1.000000 0
1.500000 1.000000 0
1.600000 1.000000 0
1.700000 1.000000 0
1.800000 1.000000 0
1.900000 1.000000 0
2.000000 1.000000 0
0.000000 1.100000 0
0.100000 1.100000 0
0.200000 1.100000 0
0.300000 1.100000 0
0.400000 1.100000 0
0.500000 1.100000 0
0.600000 1.100000 0
0.700000 1.100000 0
0.800000 1.100000 0
0.900000 1.100000 0
1.000000 1.100000 0
1.100000 1.100000 0
1.200000 1.100000 0
1.300000 1.100000 0
1.400000 1.100000 0
1.500000 1.100000 0
1.600000 1.100000 0
1.700000 1.100000 0
1.800000 1.100000 0
1.900000 1.100000 0
2.000000 1.100000 0
0.000000 1.200000 0
0.100000 1.200000 0
0.200000 1.200000 0
0.300000 1.200000 0
0.400000 1.200000 0
0.500000 1.200000 0
0.600000 1.200000 0
0.700000 1.200000 0
0.800000 1.200000 0
0.900000 1.200000 0
1.000000 1.200000 0
1.100000 1.200000 0
1.200000 1.200000 0
1.300000 1.200000 0
1.400000 1.200000 0
1.500000 1.200000 0
1.600000 1.200000 0
1.700000 1.200000 0
1.800000 1.200000 0
1.900000 1.200000 0
2.000000 1.200000 0
0.000000 1.300000 0
0.100000 1.300000 0
0.200000 1.300000 0
0.300000 1.300000 0
0.400000 1.300000 0
0.500000 1.300000 0
0.600000 1.300000 0
0.700000 1.300000 0
0.800000 1.300000 0
0.900000 1.300000 0
1.000000 1.300000 0
1.100000 1.300000 0
1.200000 1.300000 0
1.300000 1.300000 0
1.400000 1.300000 0
1.500000 1.300000 0
1.600000 1.300000 0
1.700000 1.300000 0
1.800000 1.300000 0
1.900000 1.300000 0
2.000000 1.300000 0
0.000000 1.400000 0
0.100000 1.400000 0
0.200000 1.400000 0
0.300000 1.400000 0
0.400000 1.400000 0
0.500000 1.400000 0
0.600000 1.400000 0
0.700000 1.400000 0
0.800000 1.400000 0
0.900000 1.400000 0
1.000000 1.400000 0
1.100000 1.400000 0
1.200000 1.400000 0
1.300000 1.400000 0
1.400000 1.400000 0
1.500000 1.400000 0
1.600000 1.400000 0
1.700000 1.400000 0
1.800000 1.400000 0
1.900000 1.400000 0
2.000000 1.400000 0
0.000000 1.500000 0
0.100000 1.500000 0
0.200000 1.500000 0
0.300000 1.500000 0
0.400000 1.500000 0
0.500000 1.500000 0
0.600000 1.500000 0
0.700000 1.500000 0
0.800000 1.500000 0
0.900000 1.500000 0
1.000000 1.500000 0
1.100000 1.500000 0
1.200000 1.500000 0
1.300000 1.500000 0
1.400000 1.500000 0
1.500000 1.500000 0
1.600000 1.500000 0
1.700000 1.500000 0
1.800000 1.500000 0
1.900000 1.500000 0
2.000000 1.500000 0
0.000000 1.600000 0
0.100000 1.600000 0
0.200000 1.600000 0
0.300000 1.600000 0
0.400000 1.600000 0
0.500000 1.600000 0
0.600000 1.600000 0
0.700000 1.600000 0
0.800000 1.600000 0
0.900000 1.600000 0
1.000000 1.600000 0
1.100000 1.600000 0
1.200000 1.600000 0
1.300000 1.600000 0
1.400000 1.600000 0
1.500000 1.600000 0
1.600000 1.600000 0
1.700000 1.600000 0
1.800000 1.600000 0
1.900000 1.600000 0
2.000000 1.600000 0
0.000000 1.700000 0
0.100000 1.700000 0
0.200000 1.700000 0
0.300000 1.700000 0
0.400000 1.700000 0
0.500000 1.700000 0
0.600000 1.700000 0
0.700000 1.700000 0
0.800000 1.700000 0
0.900000 1.700000 0
1.000000 1.700000 0
1.100000 1.700000 0
1.200000 1.700000 0
1.300000 1.700000 0
1.400000 1.700000 0
1.500000 1.700000 0
1.600000 1.700000 0
1.700000 1.700000 0
1.800000 1.700000 0
1.900000 1.700000 0
2.000000 1.700000 0
0.000000 1.800000 0
0.100000 1.800000 0
0.200000 1.800000 0
0.300000 1.800000 0
0.400000 1.800000 0
0.500000 1.800000 0
0.600000 1.800000 0
0.700000 1.800000 0
0.800000 1.800000 0
0.900000 1.800000 0
1.000000 1.800000 0
1.100000 1.800000 0
1.200000 1.800000 0
1.300000 1.800000 0
1.400000 1.800000 0
1.500000 1.800000 0
1.600000 1.800000 0
1.700000 1.800000 0
1.800000 1.800000 0
1.900000 1.800000 0
2.000000 1.800000 0
0.000000 1.900000 0
0.100000 1.900000 0
0.200000 1.900000 0
0.300000 1.900000 0
0.400000 1.900000 0
0.500000 1.900000 0
0.600000 1.900000 0
0.700000 1.900000 0
0.800000 1.900000 0
0.900000 1.900000 0
1.000000 1.900000 0
1.100000 1.900000 0
1.200000 1.900000 0
1.300000 1.900000 0
1.400000 1.900000 0
1.500000 1.900000 0
1.600000 1.900000 0
1.700000 1.900000 0
1.800000 1.900000 0
1.900000 1.900000 0
2.000000 1.900000 0
0.000000 2.000000 0
0.100000 2.000000 0
0.200000 2.000000 0
0.300000 2.000000 0
0.400000 2.000000 0
0.500000 2.000000 0
0.600000 2.000000 0
0.700000 2.000000 0
0.800000 2.000000 0
0.900000 2.000000 0
1.000000 2.000000 0
1.100000 2.000000 0
1.200000 2.000000 0
1.300000 2.000000 0
1.400000 2.000000 0
1.500000 2.000000 0
1.600000 2.000000 0
1.700000 2.000000 0
1.800000 2.000000 0
1.900000 2.000000 0
2.000000 2.000000 0
POINT_DATA 441 

VECTORS velocity float
0.000000 0.000000 0
0.000005 0.000000 0
0.000010 0.000000 0
0.000007 0.000000 0
-0.000000 0.000000 0
-0.000006 0.000000 0
-0.000007 0.000000 0
-0.000005 0.000000 0
-0.000001 0.000000 0
0.000002 0.000000 0
0.000003 0.000000 0
0.000002 0.000000 0
0.000001 0.000000 0
-0.000000 0.000000 0
-0.000001 0.000000 0
-0.000001 0.000000 0
-0.000001 0.000000 0
-0.000000 0.000000 0
-0.000000 0.000000 0
-0.000000 0.000000 0
-0.000000 0.000000 0
0.000000 0.000010 0
0.000020 -0.000005 0
0.000033 -0.000013 0
0.000041 -0.000018 0
0.000045 -0.000015 0
0.000045 -0.000005 0
0.000040 0.000008 0
0.000027 0.000021 0
0.000008 0.000028 0
-0.000017 0.000030 0
-0.000044 0.000027 0
-0.000069 0.000021 0
-0.000090 0.000015 0
-0.000106 0.000010 0
-0.000117 0.000006 0
-0.000123 0.000003 0
-0.000126 0.000001 0
-0.000126 0.000000 0
-0.000125 -0.000001 0
-0.000125 -0.000000 0
-0.000124 -0.000000 0
0.000000 0.000007 0
0.000014 -0.000031 0
0.000029 -0.000034 0
0.000044 -0.000024 0
0.000055 -0.000007 0
0.000057 0.000012 0
0.000049 0.000029 0
0.000032 0.000041 0
0.000007 0.000048 0
-0.000022 0.000050 0
-0.000051 0.000048 0
-0.000079 0.000042 0
-0.000101 0.000035 0
-0.000117 0.000026 0
-0.000128 0.000017 0
-0.000134 0.000009 0
-0.000136 0.000004 0
-0.000136 0.000000 0
-0.000136 -0.000001 0
-0.000135 -0.000001 0
-0.000134 -0.000001 0
0.000000 -0.000005 0
0.000012 -0.000051 0
0.000034 -0.000043 0
0.000053 -0.000026 0
0.000065 -0.000006 0
0.000066 0.000014 0
0.000056 0.000035 0
0.000037 0.000054 0
0.000010 0.000069 0
-0.000022 0.000078 0
-0.000054 0.000078 0
-0.000083 0.000071 0
-0.000106 0.000057 0
-0.000122 0.000041 0
-0.000132 0.000026 0
-0.000137 0.000013 0
-0.000137 0.000004 0
-0.000136 -0.000001 0
-0.000134 -0.000003 0
-0.000133 -0.000002 0
-0.000132 -0.000001 0
0.000000 -0.000004 0
0.000018 -0.000064 0
0.000042 -0.000057 0
0.000061 -0.000041 0
0.000073 -0.000019 0
0.000076 0.000010 0
0.000067 0.000043 0
0.000048 0.000076 0
0.000018 0.000102 0
-0.000018 0.000116 0
-0.000056 0.000115 0
-0.000089 0.000100 0
-0.000114 0.000078 0
-0.000130 0.000053 0
-0.000138 0.000031 0
-0.000139 0.000014 0
-0.000137 0.000002 0
-0.000134 -0.000003 0
-0.000131 -0.000005 0
-0.000129 -0.000003 0
-0.000128 -0.000001 0
0.000000 0.000002 0
0.000022 -0.000085 0
0.000046 -0.000082 0
0.000068 -0.000063 0
0.000083 -0.000031 0
0.000090 0.000011 0
0.000085 0.000059 0
0.000064 0.000106 0
0.000029 0.000142 0
-0.000015 0.000158 0
-0.000061 0.000153 0
-0.000099 0.000130 0
-0.000125 0.000097 0
-0.000139 0.000063 0
-0.000143 0.000033 0
-0.000141 0.000012 0
-0.000136 -0.000002 0
-0.000130 -0.000008 0
-0.000125 -0.000008 0
-0.000122 -0.000004 0
-0.000122 -0.000002 0
0.000000 0.000002 0
0.000023 -0.000112 0
0.000049 -0.000109 0
0.000074 -0.000083 0
0.000095 -0.000041 0
0.000106 0.000013 0
0.000102 0.000075 0
0.000080 0.000136 0
0.000040 0.000184 0
-0.000013 0.000205 0
-0.000066 0.000196 0
-0.000108 0.000162 0
-0.000134 0.000116 0
-0.000145 0.000070 0
-0.000145 0.000033 0
-0.000139 0.000006 0
-0.000130 -0.000008 0
-0.000122 -0.000014 0
-0.000115 -0.000012 0
-0.000111 -0.000006 0
-0.000111 -0.000002 0
0.000000 -0.000002 0
0.000022 -0.000139 0
0.000050 -0.000134 0
0.000078 -0.000103 0
0.000101 -0.000056 0
0.000115 0.000008 0
0.000114 0.000086 0
0.000092 0.000166 0
0.000048 0.000231 0
-0.000010 0.000260 0
-0.000068 0.000246 0
-0.000113 0.000198 0
-0.000138 0.000135 0
-0.000145 0.000074 0
-0.000140 0.000027 0
-0.000130 -0.000003 0
-0.000118 -0.000019 0
-0.000108 -0.000023 0
-0.000101 -0.000018 0
-0.000096 -0.000008 0
-0.000096 -0.000002 0
0.000000 -0.000002 0
0.000021 -0.000163 0
0.000047 -0.000160 0
0.000073 -0.000129 0
0.000096 -0.000077 0
0.000112 -0.000002 0
0.000114 0.000094 0
0.000095 0.000198 0
0.000053 0.000283 0
-0.000006 0.000321 0
-0.000065 0.000301 0
-0.000109 0.000234 0
-0.000130 0.000150 0
-0.000133 0.000073 0
-0.000124 0.000018 0
-0.000112 -0.000016 0
-0.000099 -0.000031 0
-0.000088 -0.000032 0
-0.000080 -0.000024 0
-0.000076 -0.000010 0
-0.000076 -0.000002 0
0.000000 0.000000 0
0.000017 -0.000185 0
0.000037 -0.000185 0
0.000057 -0.000153 0
0.000077 -0.000097 0
0.000091 -0.000012 0
0.000096 0.000101 0
0.000082 0.000228 0
0.000048 0.000333 0
-0.000002 0.000379 0
-0.000052 0.000350 0
-0.000088 0.000264 0
-0.000103 0.000159 0
-0.000102 0.000069 0
-0.000093 0.000006 0
-0.000081 -0.000029 0
-0.000070 -0.000043 0
-0.000060 -0.000041 0
-0.000054 -0.000030 0
-0.000051 -0.000012 0
-0.000051 -0.000003 0
0.000000 0.000000 0
0.000010 -0.000201 0
0.000020 -0.000203 0
0.000032 -0.000170 0
0.000043 -0.000111 0
0.000053 -0.000019 0
0.000057 0.000105 0
0.000050 0.000248 0
0.000030 0.000369 0
0.000001 0.000421 0
-0.000027 0.000385 0
-0.000047 0.000284 0
-0.000055 0.000164 0
-0.000053 0.000063 0
-0.000047 -0.000004 0
-0.000039 -0.000039 0
-0.000032 -0.000051 0
-0.000027 -0.000048 0
-0.000023 -0.000034 0
-0.000021 -0.000014 0
-0.000021 -0.000003 0
0.000000 -0.000001 0
0.000000 -0.000207 0
0.000000 -0.000209 0
0.000001 -0.000175 0
0.000001 -0.000116 0
0.000002 -0.000023 0
0.000002 0.000105 0
0.000003 0.000254 0
0.000004 0.000380 0
0.000005 0.000436 0
0.000006 0.000398 0
0.000007 0.000291 0
0.000008 0.000165 0
0.000009 0.000061 0
0.000009 -0.000008 0
0.000010 -0.000043 0
0.000010 -0.000055 0
0.000011 -0.000050 0
0.000011 -0.000035 0
0.000012 -0.000014 0
0.000012 -0.000003 0
0.000000 -0.000001 0
-0.000009 -0.000202 0
-0.000020 -0.000203 0
-0.000031 -0.000170 0
-0.000042 -0.000111 0
-0.000050 -0.000021 0
-0.000052 0.000103 0
-0.000044 0.000245 0
-0.000022 0.000366 0
0.000009 0.000419 0
0.000039 0.000383 0
0.000061 0.000282 0
0.000070 0.000163 0
0.000070 0.000062 0
0.000065 -0.000005 0
0.000059 -0.000040 0
0.000053 -0.000053 0
0.000049 -0.000049 0
0.000046 -0.000034 0
0.000044 -0.000014 0
0.000044 -0.000003 0
0.000000 -0.000000 0
-0.000016 -0.000187 0
-0.000036 -0.000187 0
-0.000057 -0.000154 0
-0.000075 -0.000098 0
-0.000089 -0.000013 0
-0.000092 0.000099 0
-0.000076 0.000224 0
-0.000040 0.000329 0
0.000012 0.000375 0
0.000064 0.000346 0
0.000101 0.000260 0
0.000118 0.000156 0
0.000119 0.000066 0
0.000112 0.000003 0
0.000102 -0.000032 0
0.000092 -0.000045 0
0.000084 -0.000043 0
0.000078 -0.000031 0
0.000075 -0.000013 0
0.000075 -0.000002 0
0.000000 -0.000000 0
-0.000022 -0.000165 0
-0.000048 -0.000163 0
-0.000073 -0.000132 0
-0.000096 -0.000079 0
-0.000110 -0.000004 0
-0.000111 0.000092 0
-0.000091 0.000194 0
-0.000047 0.000278 0
0.000014 0.000315 0
0.000076 0.000294 0
0.000121 0.000228 0
0.000145 0.000144 0
0.000150 0.000068 0
0.000144 0.000013 0
0.000134 -0.000020 0
0.000122 -0.000035 0
0.000113 -0.000035 0
0.000106 -0.000026 0
0.000102 -0.000011 0
0.000102 -0.000002 0
0.000000 -0.000000 0
-0.000025 -0.000139 0
-0.000054 -0.000136 0
-0.000081 -0.000107 0
-0.000103 -0.000060 0
-0.000116 0.000003 0
-0.000114 0.000080 0
-0.000090 0.000160 0
-0.000045 0.000224 0
0.000016 0.000252 0
0.000078 0.000238 0
0.000126 0.000190 0
0.000155 0.000127 0
0.000165 0.000067 0
0.000163 0.000020 0
0.000155 -0.000010 0
0.000145 -0.000024 0
0.000136 -0.000027 0
0.000129 -0.000021 0
0.000125 -0.000009 0
0.000125 -0.000002 0
0.000000 -0.000000 0
-0.000026 -0.000111 0
-0.000056 -0.000107 0
-0.000082 -0.000082 0
-0.000103 -0.000044 0
-0.000112 0.000007 0
-0.000107 0.000066 0
-0.000082 0.000125 0
-0.000039 0.000171 0
0.000018 0.000193 0
0.000075 0.000184 0
0.000122 0.000151 0
0.000153 0.000105 0
0.000168 0.000060 0
0.000172 0.000023 0
0.000167 -0.000002 0
0.000160 -0.000015 0
0.000153 -0.000019 0
0.000147 -0.000015 0
0.000143 -0.000007 0
0.000143 -0.000002 0
0.000000 -0.000000 0
-0.000026 -0.000083 0
-0.000056 -0.000079 0
-0.000081 -0.000060 0
-0.000099 -0.000031 0
-0.000106 0.000007 0
-0.000098 0.000050 0
-0.000073 0.000092 0
-0.000033 0.000124 0
0.000019 0.000139 0
0.000071 0.000134 0
0.000116 0.000112 0
0.000149 0.000081 0
0.000167 0.000048 0
0.000175 0.000021 0
0.000175 0.000002 0
0.000171 -0.000009 0
0.000165 -0.000013 0
0.000160 -0.000011 0
0.000157 -0.000005 0
0.000156 -0.000001 0
0.000000 0.000000 0
-0.000027 -0.000055 0
-0.000057 -0.000052 0
-0.000081 -0.000039 0
-0.000098 -0.000019 0
-0.000103 0.000005 0
-0.000093 0.000033 0
-0.000068 0.000060 0
-0.000030 0.000080 0
0.000018 0.000089 0
0.000067 0.000086 0
0.000111 0.000073 0
0.000145 0.000054 0
0.000166 0.000033 0
0.000177 0.000016 0
0.000180 0.000002 0
0.000178 -0.000005 0
0.000173 -0.000008 0
0.000169 -0.000007 0
0.000166 -0.000003 0
0.000165 -0.000001 0
0.000000 -0.000000 0
-0.000027 -0.000027 0
-0.000055 -0.000025 0
-0.000079 -0.000019 0
-0.000094 -0.000009 0
-0.000098 0.000003 0
-0.000089 0.000016 0
-0.000065 0.000028 0
-0.000029 0.000037 0
0.000015 0.000042 0
0.000060 0.000041 0
0.000101 0.000035 0
0.000133 0.000026 0
0.000155 0.000016 0
0.000167 0.000008 0
0.000171 0.000001 0
0.000169 -0.000003 0
0.000165 -0.000004 0
0.000161 -0.000004 0
0.000158 -0.000002 0
0.000157 -0.000000 0
0.000000 0.000000 0
-0.000000 0.000000 0
-0.000000 0.000000 0
-0.000000 0.000000 0
-0.000000 0.000000 0
-0.000000 0.000000 0
-0.000000 0.000000 0
-0.000000 0.000000 0
-0.000000 0.000000 0
-0.000000 0.000000 0
0.000000 0.000000 0
0.000000 0.000000 0
0.000000 0.000000 0
0.000000 0.000000 0
0.000000 0.000000 0
0.000000 0.000000 0
0.000000 0.000000 0
0.000000 0.000000 0
0.000000 0.000000 0
0.000000 0.000000 0
0.000000 0.000000 0

CELL_DATA 400 
SCALARS pressure float 1 
LOOKUP_TABLE default 
0.242656
0.242637
0.242597
0.242569
0.242570
0.242592
0.242619
0.242637
0.242641
0.242633
0.242621
0.242611
0.242606
0.242607
0.242610
0.242613
0.242616
0.242617
0.242618
0.242619
0.219615
0.219595
0.219597
0.219613
0.219629
0.219636
0.219631
0.219621
0.219610
0.219604
0.219604
0.219607
0.219611
0.219615
0.219617
0.219618
0.219618
0.219618
0.219618
0.219619
0.196588
0.196611
0.196636
0.196645
0.196635
0.196616
0.196600
0.196593
0.196596
0.196605
0.196613
0.196619
0.196620
0.196619
0.196618
0.196617
0.196617
0.196617
0.196618
0.196619
0.173608
0.173632
0.173637
0.173625
0.173607
0.173596
0.173594
0.173601
0.173611
0.173618
0.173622
0.173621
0.173619
0.173616
0.173615
0.173615
0.173616
0.173617
0.173618
0.173619
0.150623
0.150622
0.150614
0.150608
0.150606
0.150609
0.150613
0.150617
0.150618
0.150618
0.150616
0.150615
0.150614
0.150614
0.150615
0.150616
0.150617
0.150618
0.150619
0.150620
0.127614
0.127608
0.127612
0.127619
0.127624
0.127624
0.127620
0.127615
0.127611
0.127610
0.127611
0.127613
0.127615
0.127616
0.127617
0.127618
0.127618
0.127619
0.127619
0.127620
0.104607
0.104613
0.104622
0.104628
0.104627
0.104620
0.104613
0.104609
0.104608
0.104610
0.104613
0.104616
0.104618
0.104618
0.104618
0.104618
0.104619
0.104619
0.104620
0.104620
0.081614
0.081620
0.081623
0.081623
0.081619
0.081615
0.081612
0.081612
0.081613
0.081615
0.081617
0.081618
0.081618
0.081618
0.081618
0.081619
0.081619
0.081620
0.081620
0.081620
0.058621
0.058619
0.058618
0.058618
0.058618
0.058619
0.058619
0.058618
0.058617
0.058617
0.058617
0.058617
0.058618
0.058618
0.058619
0.058620
0.058620
0.058620
0.058621
0.058621
0.035621
0.035616
0.035617
0.035621
0.035623
0.035624
0.035623
0.035620
0.035618
0.035617
0.035617
0.035618
0.035619
0.035620
0.035621
0.035621
0.035621
0.035621
0.035621
0.035622
0.012620
0.012619
0.012621
0.012624
0.012626
0.012625
0.012623
0.012621
0.012620
0.012619
0.012620
0.012621
0.012622
0.012622
0.012622
0.012622
0.012622
0.012622
0.012622
0.012622
-0.010377
-0.010377
-0.010376
-0.010376
-0.010375
-0.010375
-0.010376
-0.010376
-0.010376
-0.010376
-0.010376
-0.010376
-0.010376
-0.010376
-0.010377
-0.010377
-0.010377
-0.010377
-0.010377
-0.010377
-0.033374
-0.033375
-0.033377
-0.033376
-0.033375
-0.033373
-0.033372
-0.033372
-0.033372
-0.033373
-0.033374
-0.033374
-0.033375
-0.033375
-0.033375
-0.033376
-0.033376
-0.033376
-0.033377
-0.033377
-0.056373
-0.056375
-0.056376
-0.056375
-0.056373
-0.056371
-0.056370
-0.056370
-0.056371
-0.056371
-0.056372
-0.056373
-0.056373
-0.056373
-0.056374
-0.056374
-0.056375
-0.056375
-0.056376
-0.056376
-0.079372
-0.079373
-0.079373
-0.079373
-0.079371
-0.079370
-0.079369
-0.079369
-0.079369
-0.079370
-0.079370
-0.079371
-0.079371
-0.079372
-0.079373
-0.079373
-0.079374
-0.079375
-0.079375
-0.079376
-0.102371
-0.102371
-0.102372
-0.102372
-0.102371
-0.102370
-0.102369
-0.102368
-0.102368
-0.102368
-0.102369
-0.102369
-0.102370
-0.102371
-0.102372
-0.102372
-0.102373
-0.102374
-0.102375
-0.102375
-0.125370
-0.125370
-0.125371
-0.125371
-0.125370
-0.125369
-0.125368
-0.125367
-0.125367
-0.125367
-0.125368
-0.125369
-0.125369
-0.125370
-0.125371
-0.125372
-0.125372
-0.125373
-0.125374
-0.125375
-0.148369
-0.148370
-0.148370
-0.148370
-0.148369
-0.148368
-0.148367
-0.148367
-0.148366
-0.148367
-0.148367
-0.148368
-0.148368
-0.148369
-0.148370
-0.148371
-0.148372
-0.148373
-0.148374
-0.148374
-0.171369
-0.171369
-0.171369
-0.171369
-0.171369
-0.171368
-0.171367
-0.171366
-0.171366
-0.171366
-0.171366
-0.171367
-0.171368
-0.171368
-0.171369
-0.171370
-0.171371
-0.171372
-0.171373
-0.171374
-0.194369
-0.194369
-0.194369
-0.194369
-0.194368
-0.194367
-0.194366
-0.194366
-0.194365
-0.194365
-0.194365
-0.194366
-0.194367
-0.194368
-0.194369
-0.194370
-0.194371
-0.194372
-0.194373
-0.194374

SCALARS temperature float 1 
LOOKUP_TABLE default 
0.000020
0.000161
0.000435
0.000820
0.001285
0.001785
0.002269
0.002684
0.002986
0.003144
0.003153
0.003030
0.002808
0.002527
0.002228
0.001943
0.001697
0.001504
0.001373
0.001307
0.000022
0.000176
0.000474
0.000896
0.001405
0.001956
0.002489
0.002946
0.003275
0.003442
0.003442
0.003295
0.003040
0.002723
0.002389
0.002074
0.001804
0.001594
0.001452
0.001380
0.000025
0.000206
0.000557
0.001055
0.001661
0.002320
0.002961
0.003508
0.003896
0.004081
0.004057
0.003854
0.003523
0.003124
0.002714
0.002335
0.002015
0.001769
0.001604
0.001522
0.000032
0.000255
0.000692
0.001317
0.002087
0.002932
0.003761
0.004468
0.004958
0.005169
0.005095
0.004783
0.004312
0.003768
0.003226
0.002739
0.002336
0.002032
0.001830
0.001730
0.000041
0.000327
0.000890
0.001707
0.002728
0.003869
0.005002
0.005971
0.006628
0.006872
0.006700
0.006192
0.005481
0.004698
0.003948
0.003294
0.002769
0.002380
0.002127
0.002003
0.000053
0.000423
0.001160
0.002247
0.003634
0.005218
0.006823
0.008209
0.009127
0.009410
0.009054
0.008211
0.007108
0.005953
0.004892
0.004001
0.003307
0.002806
0.002485
0.002329
0.000069
0.000544
0.001502
0.002943
0.004830
0.007045
0.009353
0.011378
0.012701
0.013023
0.012343
0.010952
0.009240
0.007537
0.006043
0.004838
0.003928
0.003288
0.002885
0.002692
0.000086
0.000681
0.001895
0.003762
0.006279
0.009332
0.012619
0.015576
0.017498
0.017852
0.016650
0.014419
0.011829
0.009384
0.007336
0.005747
0.004586
0.003789
0.003296
0.003062
0.000104
0.000818
0.002296
0.004616
0.007833
0.011875
0.016386
0.020565
0.023288
0.023664
0.021719
0.018355
0.014645
0.011308
0.008633
0.006632
0.005213
0.004260
0.003679
0.003406
0.000118
0.000933
0.002635
0.005351
0.009210
0.014208
0.019964
0.025445
0.029043
0.029433
0.026654
0.022061
0.017194
0.012988
0.009732
0.007368
0.005728
0.004645
0.003992
0.003686
0.000127
0.001001
0.002838
0.005795
0.010051
0.015665
0.022255
0.028638
0.032855
0.033257
0.029893
0.024446
0.018803
0.014035
0.010415
0.007830
0.006056
0.004895
0.004197
0.003871
0.000128
0.001010
0.002859
0.005834
0.010108
0.015737
0.022341
0.028744
0.032986
0.033403
0.030045
0.024600
0.018954
0.014176
0.010543
0.007942
0.006154
0.004980
0.004275
0.003944
0.000122
0.000958
0.002701
0.005471
0.009387
0.014440
0.020250
0.025793
0.029463
0.029897
0.027132
0.022535
0.017652
0.013413
0.010113
0.007702
0.006018
0.004901
0.004223
0.003904
0.000110
0.000862
0.002411
0.004827
0.008153
0.012305
0.016924
0.021215
0.024044
0.024485
0.022556
0.019175
0.015423
0.012023
0.009269
0.007187
0.005695
0.004684
0.004063
0.003767
0.000095
0.000745
0.002065
0.004077
0.006763
0.009994
0.013456
0.016576
0.018633
0.019065
0.017878
0.015610
0.012945
0.010396
0.008229
0.006522
0.005257
0.004378
0.003828
0.003564
0.000080
0.000629
0.001729
0.003369
0.005492
0.007960
0.010513
0.012756
0.014244
0.014656
0.013985
0.012531
0.010703
0.008851
0.007194
0.005831
0.004785
0.004038
0.003562
0.003331
0.000067
0.000530
0.001447
0.002787
0.004479
0.006390
0.008313
0.009972
0.011090
0.011475
0.011117
0.010183
0.008921
0.007568
0.006297
0.005209
0.004346
0.003714
0.003304
0.003102
0.000057
0.000455
0.001236
0.002360
0.003753
0.005295
0.006817
0.008119
0.009011
0.009370
0.009186
0.008556
0.007643
0.006614
0.005607
0.004716
0.003988
0.003444
0.003085
0.002907
0.000051
0.000406
0.001099
0.002087
0.003297
0.004620
0.005910
0.007010
0.007776
0.008116
0.008019
0.007554
0.006835
0.005995
0.005148
0.004378
0.003738
0.003252
0.002928
0.002766
0.000048
0.000382
0.001032
0.001955
0.003079
0.004300
0.005485
0.006495
0.007204
0.007534
0.007474
0.007078
0.006446
0.005691
0.004918
0.004207
0.003610
0.003153
0.002846
0.002693


SCALARS Species_1 float 1 
LOOKUP_TABLE default 
0.000589
0.001764
0.002924
0.004061
0.005163
0.006221
0.007224
0.008159
0.009018
0.009791
0.010472
0.011059
0.011552
0.011956
0.012275
0.012520
0.012701
0.012826
0.012904
0.012941
0.000590
0.001764
0.002924
0.004061
0.005163
0.006221
0.007223
0.008159
0.009017
0.009790
0.010472
0.011059
0.011553
0.011956
0.012277
0.012522
0.012703
0.012828
0.012907
0.012944
0.000590
0.001764
0.002924
0.004061
0.005164
0.006222
0.007223
0.008159
0.009017
0.009790
0.010472
0.011059
0.011553
0.011957
0.012278
0.012524
0.012705
0.012831
0.012910
0.012947
0.000589
0.001763
0.002923
0.004059
0.005160
0.006217
0.007219
0.008153
0.009011
0.009783
0.010464
0.011052
0.011545
0.011949
0.012270
0.012517
0.012698
0.012824
0.012903
0.012941
0.000588
0.001759
0.002916
0.004050
0.005149
0.006203
0.007202
0.008134
0.008990
0.009761
0.010440
0.011026
0.011519
0.011922
0.012243
0.012489
0.012670
0.012796
0.012875
0.012913
0.000585
0.001751
0.002902
0.004030
0.005124
0.006173
0.007166
0.008094
0.008945
0.009712
0.010388
0.010971
0.011462
0.011863
0.012182
0.012428
0.012608
0.012734
0.012813
0.012851
0.000580
0.001736
0.002878
0.003995
0.005080
0.006119
0.007104
0.008024
0.008868
0.009628
0.010298
0.010876
0.011362
0.011761
0.012077
0.012320
0.012500
0.012625
0.012703
0.012741
0.000573
0.001713
0.002840
0.003943
0.005012
0.006039
0.007010
0.007917
0.008750
0.009500
0.010161
0.010732
0.011211
0.011604
0.011917
0.012157
0.012335
0.012458
0.012536
0.012573
0.000562
0.001682
0.002787
0.003870
0.004920
0.005927
0.006880
0.007770
0.008587
0.009323
0.009972
0.010532
0.011003
0.011388
0.011695
0.011932
0.012106
0.012228
0.012304
0.012341
0.000549
0.001641
0.002720
0.003776
0.004801
0.005783
0.006714
0.007582
0.008379
0.009096
0.009729
0.010275
0.010735
0.011111
0.011411
0.011642
0.011813
0.011932
0.012007
0.012043
0.000532
0.001592
0.002638
0.003663
0.004657
0.005610
0.006512
0.007354
0.008126
0.008822
0.009436
0.009965
0.010411
0.010777
0.011068
0.011292
0.011458
0.011574
0.011647
0.011682
0.000513
0.001535
0.002545
0.003533
0.004491
0.005410
0.006280
0.007092
0.007837
0.008508
0.009100
0.009610
0.010040
0.010393
0.010675
0.010892
0.011052
0.011165
0.011236
0.011270
0.000493
0.001474
0.002442
0.003391
0.004311
0.005193
0.006028
0.006807
0.007521
0.008165
0.008733
0.009223
0.009637
0.009976
0.010246
0.010455
0.010610
0.010719
0.010787
0.010820
0.000471
0.001409
0.002336
0.003243
0.004123
0.004966
0.005764
0.006509
0.007193
0.007809
0.008352
0.008821
0.009217
0.009542
0.009802
0.010002
0.010151
0.010255
0.010321
0.010352
0.000450
0.001345
0.002230
0.003096
0.003936
0.004741
0.005504
0.006215
0.006868
0.007456
0.007975
0.008424
0.008802
0.009113
0.009362
0.009554
0.009697
0.009797
0.009860
0.009890
0.000430
0.001285
0.002131
0.002958
0.003761
0.004530
0.005259
0.005938
0.006563
0.007125
0.007622
0.008051
0.008414
0.008712
0.008950
0.009134
0.009271
0.009367
0.009428
0.009457
0.000412
0.001233
0.002043
0.002837
0.003607
0.004345
0.005043
0.005696
0.006294
0.006834
0.007312
0.007724
0.008072
0.008359
0.008588
0.008766
0.008898
0.008990
0.009048
0.009077
0.000398
0.001190
0.001973
0.002739
0.003482
0.004195
0.004870
0.005500
0.006079
0.006600
0.007062
0.007461
0.007798
0.008075
0.008297
0.008469
0.008597
0.008687
0.008743
0.008771
0.000388
0.001160
0.001923
0.002671
0.003395
0.004091
0.004749
0.005363
0.005927
0.006437
0.006887
0.007276
0.007606
0.007877
0.008094
0.008262
0.008387
0.008474
0.008530
0.008556
0.000383
0.001145
0.001898
0.002635
0.003351
0.004037
0.004686
0.005293
0.005850
0.006352
0.006797
0.007181
0.007507
0.007774
0.007989
0.008155
0.008278
0.008365
0.008420
0.008446


SCALARS Species_2 float 1 
LOOKUP_TABLE default 
0.000288
0.000853
0.001388
0.001872
0.002292
0.002637
0.002898
0.003075
0.003168
0.003186
0.003136
0.003033
0.002891
0.002724
0.002547
0.002376
0.002222
0.002097
0.002009
0.001963
0.000295
0.000874
0.001421
0.001917
0.002347
0.002700
0.002968
0.003149
0.003245
0.003263
0.003213
0.003108
0.002963
0.002792
0.002612
0.002437
0.002280
0.002152
0.002062
0.002015
0.000309
0.000914
0.001487
0.002006
0.002456
0.002825
0.003105
0.003294
0.003395
0.003415
0.003363
0.003253
0.003102
0.002924
0.002735
0.002553
0.002389
0.002255
0.002161
0.002113
0.000329
0.000973