# vtk DataFile Version 2.0
generated by CFD-lab course output (written by Tobias Neckel) 
ASCII

DATASET STRUCTURED_GRID
DIMENSIONS  21 21 1 
POINTS 441 float

0.000000 0.000000 0
0.100000 0.000000 0
0.200000 0.000000 0
0.300000 0.000000 0
0.400000 0.000000 0
0.500000 0.000000 0
0.600000 0.000000 0
0.700000 0.000000 0
0.800000 0.000000 0
0.900000 0.000000 0
1.000000 0.000000 0
1.100000 0.000000 0
1.200000 0.000000 0
1.300000 0.000000 0
1.400000 0.000000 0
1.500000 0.000000 0
1.600000 0.000000 0
1.700000 0.000000 0
1.800000 0.000000 0
1.900000 0.000000 0
2.000000 0.000000 0
0.000000 0.100000 0
0.100000 0.100000 0
0.200000 0.100000 0
0.300000 0.100000 0
0.400000 0.100000 0
0.500000 0.100000 0
0.600000 0.100000 0
0.700000 0.100000 0
0.800000 0.100000 0
0.900000 0.100000 0
1.000000 0.100000 0
1.100000 0.100000 0
1.200000 0.100000 0
1.300000 0.100000 0
1.400000 0.100000 0
1.500000 0.100000 0
1.600000 0.100000 0
1.700000 0.100000 0
1.800000 0.100000 0
1.900000 0.100000 0
2.000000 0.100000 0
0.000000 0.200000 0
0.100000 0.200000 0
0.200000 0.200000 0
0.300000 0.200000 0
0.400000 0.200000 0
0.500000 0.200000 0
0.600000 0.200000 0
0.700000 0.200000 0
0.800000 0.200000 0
0.900000 0.200000 0
1.000000 0.200000 0
1.100000 0.200000 0
1.200000 0.200000 0
1.300000 0.200000 0
1.400000 0.200000 0
1.500000 0.200000 0
1.600000 0.200000 0
1.700000 0.200000 0
1.800000 0.200000 0
1.900000 0.200000 0
2.000000 0.200000 0
0.000000 0.300000 0
0.100000 0.300000 0
0.200000 0.300000 0
0.300000 0.300000 0
0.400000 0.300000 0
0.500000 0.300000 0
0.600000 0.300000 0
0.700000 0.300000 0
0.800000 0.300000 0
0.900000 0.300000 0
1.000000 0.300000 0
1.100000 0.300000 0
1.200000 0.300000 0
1.300000 0.300000 0
1.400000 0.300000 0
1.500000 0.300000 0
1.600000 0.300000 0
1.700000 0.300000 0
1.800000 0.300000 0
1.900000 0.300000 0
2.000000 0.300000 0
0.000000 0.400000 0
0.100000 0.400000 0
0.200000 0.400000 0
0.300000 0.400000 0
0.400000 0.400000 0
0.500000 0.400000 0
0.600000 0.400000 0
0.700000 0.400000 0
0.800000 0.400000 0
0.900000 0.400000 0
1.000000 0.400000 0
1.100000 0.400000 0
1.200000 0.400000 0
1.300000 0.400000 0
1.400000 0.400000 0
1.500000 0.400000 0
1.600000 0.400000 0
1.700000 0.400000 0
1.800000 0.400000 0
1.900000 0.400000 0
2.000000 0.400000 0
0.000000 0.500000 0
0.100000 0.500000 0
0.200000 0.500000 0
0.300000 0.500000 0
0.400000 0.500000 0
0.500000 0.500000 0
0.600000 0.500000 0
0.700000 0.500000 0
0.800000 0.500000 0
0.900000 0.500000 0
1.000000 0.500000 0
1.100000 0.500000 0
1.200000 0.500000 0
1.300000 0.500000 0
1.400000 0.500000 0
1.500000 0.500000 0
1.600000 0.500000 0
1.700000 0.500000 0
1.800000 0.500000 0
1.900000 0.500000 0
2.000000 0.500000 0
0.000000 0.600000 0
0.100000 0.600000 0
0.200000 0.600000 0
0.300000 0.600000 0
0.400000 0.600000 0
0.500000 0.600000 0
0.600000 0.600000 0
0.700000 0.600000 0
0.800000 0.600000 0
0.900000 0.600000 0
1.000000 0.600000 0
1.100000 0.600000 0
1.200000 0.600000 0
1.300000 0.600000 0
1.400000 0.600000 0
1.500000 0.600000 0
1.600000 0.600000 0
1.700000 0.600000 0
1.800000 0.600000 0
1.900000 0.600000 0
2.000000 0.600000 0
0.000000 0.700000 0
0.100000 0.700000 0
0.200000 0.700000 0
0.300000 0.700000 0
0.400000 0.700000 0
0.500000 0.700000 0
0.600000 0.700000 0
0.700000 0.700000 0
0.800000 0.700000 0
0.900000 0.700000 0
1.000000 0.700000 0
1.100000 0.700000 0
1.200000 0.700000 0
1.300000 0.700000 0
1.400000 0.700000 0
1.500000 0.700000 0
1.600000 0.700000 0
1.700000 0.700000 0
1.800000 0.700000 0
1.900000 0.700000 0
2.000000 0.700000 0
0.000000 0.800000 0
0.100000 0.800000 0
0.200000 0.800000 0
0.300000 0.800000 0
0.400000 0.800000 0
0.500000 0.800000 0
0.600000 0.800000 0
0.700000 0.800000 0
0.800000 0.800000 0
0.900000 0.800000 0
1.000000 0.800000 0
1.100000 0.800000 0
1.200000 0.800000 0
1.300000 0.800000 0
1.400000 0.800000 0
1.500000 0.800000 0
1.600000 0.800000 0
1.700000 0.800000 0
1.800000 0.800000 0
1.900000 0.800000 0
2.000000 0.800000 0
0.000000 0.900000 0
0.100000 0.900000 0
0.200000 0.900000 0
0.300000 0.900000 0
0.400000 0.900000 0
0.500000 0.900000 0
0.600000 0.900000 0
0.700000 0.900000 0
0.800000 0.900000 0
0.900000 0.900000 0
1.000000 0.900000 0
1.100000 0.900000 0
1.200000 0.900000 0
1.300000 0.900000 0
1.400000 0.900000 0
1.500000 0.900000 0
1.600000 0.900000 0
1.700000 0.900000 0
1.800000 0.900000 0
1.900000 0.900000 0
2.000000 0.900000 0
0.000000 1.000000 0
0.100000 1.000000 0
0.200000 1.000000 0
0.300000 1.000000 0
0.400000 1.000000 0
0.500000 1.000000 0
0.600000 1.000000 0
0.700000 1.000000 0
0.800000 1.000000 0
0.900000 1.000000 0
1.000000 1.000000 0
1.100000 1.000000 0
1.200000 1.000000 0
1.300000 1.000000 0
1.400000 1.000000 0
1.500000 1.000000 0
1.600000 1.000000 0
1.700000 1.000000 0
1.800000 1.000000 0
1.900000 1.000000 0
2.000000 1.000000 0
0.000000 1.100000 0
0.100000 1.100000 0
0.200000 1.100000 0
0.300000 1.100000 0
0.400000 1.100000 0
0.500000 1.100000 0
0.600000 1.100000 0
0.700000 1.100000 0
0.800000 1.100000 0
0.900000 1.100000 0
1.000000 1.100000 0
1.100000 1.100000 0
1.200000 1.100000 0
1.300000 1.100000 0
1.400000 1.100000 0
1.500000 1.100000 0
1.600000 1.100000 0
1.700000 1.100000 0
1.800000 1.100000 0
1.900000 1.100000 0
2.000000 1.100000 0
0.000000 1.200000 0
0.100000 1.200000 0
0.200000 1.200000 0
0.300000 1.200000 0
0.400000 1.200000 0
0.500000 1.200000 0
0.600000 1.200000 0
0.700000 1.200000 0
0.800000 1.200000 0
0.900000 1.200000 0
1.000000 1.200000 0
1.100000 1.200000 0
1.200000 1.200000 0
1.300000 1.200000 0
1.400000 1.200000 0
1.500000 1.200000 0
1.600000 1.200000 0
1.700000 1.200000 0
1.800000 1.200000 0
1.900000 1.200000 0
2.000000 1.200000 0
0.000000 1.300000 0
0.100000 1.300000 0
0.200000 1.300000 0
0.300000 1.300000 0
0.400000 1.300000 0
0.500000 1.300000 0
0.600000 1.300000 0
0.700000 1.300000 0
0.800000 1.300000 0
0.900000 1.300000 0
1.000000 1.300000 0
1.100000 1.300000 0
1.200000 1.300000 0
1.300000 1.300000 0
1.400000 1.300000 0
1.500000 1.300000 0
1.600000 1.300000 0
1.700000 1.300000 0
1.800000 1.300000 0
1.900000 1.300000 0
2.000000 1.300000 0
0.000000 1.400000 0
0.100000 1.400000 0
0.200000 1.400000 0
0.300000 1.400000 0
0.400000 1.400000 0
0.500000 1.400000 0
0.600000 1.400000 0
0.700000 1.400000 0
0.800000 1.400000 0
0.900000 1.400000 0
1.000000 1.400000 0
1.100000 1.400000 0
1.200000 1.400000 0
1.300000 1.400000 0
1.400000 1.400000 0
1.500000 1.400000 0
1.600000 1.400000 0
1.700000 1.400000 0
1.800000 1.400000 0
1.900000 1.400000 0
2.000000 1.400000 0
0.000000 1.500000 0
0.100000 1.500000 0
0.200000 1.500000 0
0.300000 1.500000 0
0.400000 1.500000 0
0.500000 1.500000 0
0.600000 1.500000 0
0.700000 1.500000 0
0.800000 1.500000 0
0.900000 1.500000 0
1.000000 1.500000 0
1.100000 1.500000 0
1.200000 1.500000 0
1.300000 1.500000 0
1.400000 1.500000 0
1.500000 1.500000 0
1.600000 1.500000 0
1.700000 1.500000 0
1.800000 1.500000 0
1.900000 1.500000 0
2.000000 1.500000 0
0.000000 1.600000 0
0.100000 1.600000 0
0.200000 1.600000 0
0.300000 1.600000 0
0.400000 1.600000 0
0.500000 1.600000 0
0.600000 1.600000 0
0.700000 1.600000 0
0.800000 1.600000 0
0.900000 1.600000 0
1.000000 1.600000 0
1.100000 1.600000 0
1.200000 1.600000 0
1.300000 1.600000 0
1.400000 1.600000 0
1.500000 1.600000 0
1.600000 1.600000 0
1.700000 1.600000 0
1.800000 1.600000 0
1.900000 1.600000 0
2.000000 1.600000 0
0.000000 1.700000 0
0.100000 1.700000 0
0.200000 1.700000 0
0.300000 1.700000 0
0.400000 1.700000 0
0.500000 1.700000 0
0.600000 1.700000 0
0.700000 1.700000 0
0.800000 1.700000 0
0.900000 1.700000 0
1.000000 1.700000 0
1.100000 1.700000 0
1.200000 1.700000 0
1.300000 1.700000 0
1.400000 1.700000 0
1.500000 1.700000 0
1.600000 1.700000 0
1.700000 1.700000 0
1.800000 1.700000 0
1.900000 1.700000 0
2.000000 1.700000 0
0.000000 1.800000 0
0.100000 1.800000 0
0.200000 1.800000 0
0.300000 1.800000 0
0.400000 1.800000 0
0.500000 1.800000 0
0.600000 1.800000 0
0.700000 1.800000 0
0.800000 1.800000 0
0.900000 1.800000 0
1.000000 1.800000 0
1.100000 1.800000 0
1.200000 1.800000 0
1.300000 1.800000 0
1.400000 1.800000 0
1.500000 1.800000 0
1.600000 1.800000 0
1.700000 1.800000 0
1.800000 1.800000 0
1.900000 1.800000 0
2.000000 1.800000 0
0.000000 1.900000 0
0.100000 1.900000 0
0.200000 1.900000 0
0.300000 1.900000 0
0.400000 1.900000 0
0.500000 1.900000 0
0.600000 1.900000 0
0.700000 1.900000 0
0.800000 1.900000 0
0.900000 1.900000 0
1.000000 1.900000 0
1.100000 1.900000 0
1.200000 1.900000 0
1.300000 1.900000 0
1.400000 1.900000 0
1.500000 1.900000 0
1.600000 1.900000 0
1.700000 1.900000 0
1.800000 1.900000 0
1.900000 1.900000 0
2.000000 1.900000 0
0.000000 2.000000 0
0.100000 2.000000 0
0.200000 2.000000 0
0.300000 2.000000 0
0.400000 2.000000 0
0.500000 2.000000 0
0.600000 2.000000 0
0.700000 2.000000 0
0.800000 2.000000 0
0.900000 2.000000 0
1.000000 2.000000 0
1.100000 2.000000 0
1.200000 2.000000 0
1.300000 2.000000 0
1.400000 2.000000 0
1.500000 2.000000 0
1.600000 2.000000 0
1.700000 2.000000 0
1.800000 2.000000 0
1.900000 2.000000 0
2.000000 2.000000 0
POINT_DATA 441 

VECTORS velocity float
0.000000 0.000000 0
0.000013 0.000000 0
-0.000003 0.000000 0
-0.000012 0.000000 0
-0.000010 0.000000 0
-0.000003 0.000000 0
0.000004 0.000000 0
0.000007 0.000000 0
0.000006 0.000000 0
0.000003 0.000000 0
-0.000000 0.000000 0
-0.000002 0.000000 0
-0.000002 0.000000 0
-0.000001 0.000000 0
-0.000001 0.000000 0
-0.000000 0.000000 0
0.000000 0.000000 0
0.000000 0.000000 0
0.000000 0.000000 0
-0.000000 0.000000 0
-0.000000 0.000000 0
0.000000 0.000006 0
0.000006 -0.000002 0
-0.000001 -0.000017 0
-0.000004 -0.000015 0
-0.000002 -0.000003 0
0.000002 0.000009 0
0.000005 0.000015 0
0.000004 0.000013 0
0.000002 0.000008 0
-0.000002 0.000002 0
-0.000005 -0.000001 0
-0.000007 -0.000003 0
-0.000009 -0.000002 0
-0.000009 -0.000001 0
-0.000009 -0.000000 0
-0.000009 0.000000 0
-0.000009 0.000000 0
-0.000009 0.000000 0
-0.000009 0.000000 0
-0.000009 0.000000 0
-0.000009 -0.000000 0
0.000000 -0.000011 0
-0.000005 -0.000011 0
0.000001 -0.000005 0
0.000005 0.000004 0
0.000007 0.000010 0
0.000006 0.000010 0
0.000003 0.000006 0
0.000000 0.000002 0
-0.000002 -0.000001 0
-0.000004 -0.000001 0
-0.000005 -0.000000 0
-0.000007 0.000001 0
-0.000008 0.000002 0
-0.000009 0.000002 0
-0.000010 0.000002 0
-0.000010 0.000001 0
-0.000010 0.000001 0
-0.000010 0.000000 0
-0.000010 -0.000000 0
-0.000010 -0.000000 0
-0.000009 -0.000000 0
0.000000 -0.000002 0
0.000000 -0.000002 0
0.000007 0.000003 0
0.000009 0.000004 0
0.000007 0.000001 0
0.000003 -0.000001 0
0.000001 -0.000002 0
-0.000001 -0.000000 0
-0.000001 0.000003 0
-0.000003 0.000005 0
-0.000004 0.000006 0
-0.000006 0.000006 0
-0.000008 0.000005 0
-0.000010 0.000004 0
-0.000010 0.000002 0
-0.000011 0.000001 0
-0.000010 -0.000000 0
-0.000010 -0.000001 0
-0.000010 -0.000001 0
-0.000009 -0.000001 0
-0.000009 -0.000000 0
0.000000 0.000006 0
0.000004 0.000000 0
0.000007 -0.000002 0
0.000007 -0.000005 0
0.000005 -0.000006 0
0.000004 -0.000004 0
0.000003 0.000001 0
0.000003 0.000006 0
0.000001 0.000010 0
-0.000001 0.000012 0
-0.000005 0.000011 0
-0.000008 0.000009 0
-0.000010 0.000006 0
-0.000012 0.000003 0
-0.000012 0.000001 0
-0.000011 -0.000000 0
-0.000011 -0.000001 0
-0.000010 -0.000001 0
-0.000010 -0.000001 0
-0.000009 -0.000001 0
-0.000009 -0.000001 0
0.000000 0.000002 0
0.000001 -0.000005 0
0.000004 -0.000008 0
0.000006 -0.000008 0
0.000008 -0.000005 0
0.000008 0.000001 0
0.000008 0.000006 0
0.000007 0.000011 0
0.000003 0.000015 0
-0.000002 0.000015 0
-0.000007 0.000013 0
-0.000011 0.000009 0
-0.000013 0.000006 0
-0.000013 0.000002 0
-0.000013 0.000000 0
-0.000012 -0.000001 0
-0.000011 -0.000001 0
-0.000010 -0.000001 0
-0.000009 -0.000001 0
-0.000009 -0.000001 0
-0.000009 -0.000001 0
0.000000 -0.000002 0
-0.000001 -0.000010 0
0.000004 -0.000009 0
0.000008 -0.000006 0
0.000011 -0.000003 0
0.000012 0.000002 0
0.000012 0.000008 0
0.000009 0.000013 0
0.000004 0.000017 0
-0.000002 0.000018 0
-0.000009 0.000016 0
-0.000013 0.000012 0
-0.000015 0.000007 0
-0.000015 0.000003 0
-0.000014 0.000000 0
-0.000012 -0.000002 0
-0.000011 -0.000002 0
-0.000010 -0.000002 0
-0.000009 -0.000002 0
-0.000008 -0.000001 0
-0.000008 -0.000001 0
0.000000 -0.000001 0
-0.000000 -0.000011 0
0.000005 -0.000009 0
0.000010 -0.000007 0
0.000013 -0.000005 0
0.000014 -0.000001 0
0.000014 0.000006 0
0.000011 0.000014 0
0.000006 0.000022 0
-0.000002 0.000025 0
-0.000010 0.000023 0
-0.000015 0.000017 0
-0.000017 0.000009 0
-0.000016 0.000003 0
-0.000014 -0.000001 0
-0.000012 -0.000004 0
-0.000010 -0.000004 0
-0.000009 -0.000004 0
-0.000008 -0.000003 0
-0.000007 -0.000002 0
-0.000007 -0.000001 0
0.000000 0.000001 0
0.000001 -0.000012 0
0.000005 -0.000012 0
0.000009 -0.000012 0
0.000012 -0.000010 0
0.000014 -0.000005 0
0.000015 0.000005 0
0.000013 0.000018 0
0.000008 0.000030 0
-0.000001 0.000036 0
-0.000010 0.000032 0
-0.000016 0.000022 0
-0.000017 0.000010 0
-0.000016 0.000001 0
-0.000014 -0.000004 0
-0.000011 -0.000006 0
-0.000009 -0.000006 0
-0.000007 -0.000005 0
-0.000006 -0.000003 0
-0.000006 -0.000002 0
-0.000006 -0.000001 0
0.000000 0.000001 0
0.000001 -0.000015 0
0.000003 -0.000016 0
0.000006 -0.000016 0
0.000009 -0.000014 0
0.000012 -0.000007 0
0.000014 0.000006 0
0.000013 0.000023 0
0.000008 0.000039 0
-0.000001 0.000046 0
-0.000009 0.000039 0
-0.000014 0.000024 0
-0.000015 0.000009 0
-0.000013 -0.000002 0
-0.000011 -0.000007 0
-0.000008 -0.000009 0
-0.000007 -0.000008 0
-0.000005 -0.000006 0
-0.000004 -0.000004 0
-0.000004 -0.000002 0
-0.000004 -0.000001 0
0.000000 -0.000000 0
-0.000000 -0.000017 0
0.000001 -0.000018 0
0.000003 -0.000018 0
0.000006 -0.000015 0
0.000008 -0.000007 0
0.000009 0.000007 0
0.000008 0.000026 0
0.000005 0.000044 0
-0.000000 0.000052 0
-0.000005 0.000044 0
-0.000008 0.000027 0
-0.000009 0.000009 0
-0.000007 -0.000004 0
-0.000006 -0.000009 0
-0.000004 -0.000010 0
-0.000003 -0.000009 0
-0.000002 -0.000007 0
-0.000002 -0.000005 0
-0.000002 -0.000002 0
-0.000002 -0.000001 0
0.000000 -0.000001 0
-0.000001 -0.000018 0
-0.000001 -0.000018 0
-0.000000 -0.000017 0
0.000000 -0.000015 0
0.000001 -0.000008 0
0.000000 0.000005 0
-0.000000 0.000025 0
-0.000000 0.000045 0
-0.000000 0.000054 0
0.000000 0.000047 0
0.000001 0.000028 0
0.000001 0.000009 0
0.000001 -0.000004 0
0.000001 -0.000010 0
0.000001 -0.000011 0
0.000001 -0.000010 0
0.000001 -0.000007 0
0.000001 -0.000005 0
0.000001 -0.000002 0
0.000001 -0.000001 0
0.000000 -0.000000 0
-0.000001 -0.000017 0
-0.000003 -0.000017 0
-0.000004 -0.000017 0
-0.000005 -0.000015 0
-0.000007 -0.000008 0
-0.000008 0.000005 0
-0.000008 0.000024 0
-0.000005 0.000043 0
0.000001 0.000052 0
0.000006 0.000044 0
0.000010 0.000027 0
0.000010 0.000009 0
0.000009 -0.000003 0
0.000008 -0.000009 0
0.000006 -0.000010 0
0.000005 -0.000009 0
0.000004 -0.000007 0
0.000004 -0.000005 0
0.000003 -0.000002 0
0.000003 -0.000001 0
0.000000 0.000000 0
-0.000002 -0.000015 0
-0.000004 -0.000016 0
-0.000007 -0.000015 0
-0.000010 -0.000013 0
-0.000012 -0.000006 0
-0.000014 0.000006 0
-0.000012 0.000022 0
-0.000007 0.000037 0
0.000001 0.000044 0
0.000010 0.000038 0
0.000015 0.000024 0
0.000016 0.000009 0
0.000015 -0.000002 0
0.000013 -0.000007 0
0.000010 -0.000009 0
0.000008 -0.000008 0
0.000007 -0.000006 0
0.000006 -0.000004 0
0.000006 -0.000002 0
0.000006 -0.000001 0
0.000000 -0.000000 0
-0.000002 -0.000013 0
-0.000006 -0.000013 0
-0.000009 -0.000012 0
-0.000011 -0.000009 0
-0.000014 -0.000003 0
-0.000015 0.000007 0
-0.000013 0.000019 0
-0.000008 0.000029 0
0.000002 0.000034 0
0.000011 0.000030 0
0.000017 0.000020 0
0.000019 0.000009 0
0.000018 0.000000 0
0.000015 -0.000004 0
0.000013 -0.000006 0
0.000011 -0.000006 0
0.000009 -0.000005 0
0.000008 -0.000003 0
0.000008 -0.000002 0
0.000008 -0.000001 0
0.000000 -0.000000 0
-0.000002 -0.000011 0
-0.000005 -0.000010 0
-0.000008 -0.000008 0
-0.000011 -0.000006 0
-0.000013 -0.000001 0
-0.000014 0.000006 0
-0.000012 0.000014 0
-0.000006 0.000022 0
0.000002 0.000025 0
0.000010 0.000022 0
0.000016 0.000016 0
0.000018 0.000008 0
0.000018 0.000002 0
0.000016 -0.000002 0
0.000014 -0.000004 0
0.000012 -0.000004 0
0.000011 -0.000004 0
0.000010 -0.000003 0
0.000009 -0.000001 0
0.000009 -0.000001 0
0.000000 -0.000000 0
-0.000002 -0.000008 0
-0.000005 -0.000007 0
-0.000008 -0.000006 0
-0.000010 -0.000004 0
-0.000011 -0.000000 0
-0.000011 0.000005 0
-0.000009 0.000011 0
-0.000004 0.000015 0
0.000002 0.000018 0
0.000009 0.000016 0
0.000014 0.000012 0
0.000016 0.000007 0
0.000017 0.000002 0
0.000016 -0.000001 0
0.000014 -0.000002 0
0.000013 -0.000003 0
0.000012 -0.000002 0
0.000011 -0.000002 0
0.000010 -0.000001 0
0.000010 -0.000001 0
0.000000 0.000000 0
-0.000002 -0.000006 0
-0.000004 -0.000005 0
-0.000007 -0.000004 0
-0.000008 -0.000002 0
-0.000009 0.000000 0
-0.000009 0.000004 0
-0.000006 0.000008 0
-0.000003 0.000010 0
0.000003 0.000012 0
0.000008 0.000011 0
0.000012 0.000008 0
0.000014 0.000005 0
0.000015 0.000002 0
0.000015 0.000000 0
0.000014 -0.000001 0
0.000013 -0.000002 0
0.000012 -0.000002 0
0.000012 -0.000001 0
0.000011 -0.000001 0
0.000011 -0.000000 0
0.000000 -0.000000 0
-0.000002 -0.000004 0
-0.000004 -0.000003 0
-0.000006 -0.000002 0
-0.000007 -0.000001 0
-0.000007 0.000001 0
-0.000007 0.000003 0
-0.000005 0.000005 0
-0.000001 0.000006 0
0.000003 0.000007 0
0.000007 0.000007 0
0.000010 0.000005 0
0.000013 0.000003 0
0.000014 0.000002 0
0.000014 0.000000 0
0.000014 -0.000000 0
0.000013 -0.000001 0
0.000013 -0.000001 0
0.000012 -0.000001 0
0.000012 -0.000000 0
0.000011 -0.000000 0
0.000000 -0.000000 0
-0.000002 -0.000002 0
-0.000003 -0.000002 0
-0.000005 -0.000001 0
-0.000006 -0.000000 0
-0.000006 0.000000 0
-0.000006 0.000001 0
-0.000004 0.000002 0
-0.000001 0.000003 0
0.000003 0.000003 0
0.000006 0.000003 0
0.000009 0.000003 0
0.000012 0.000002 0
0.000013 0.000001 0
0.000013 0.000000 0
0.000013 -0.000000 0
0.000013 -0.000000 0
0.000012 -0.000000 0
0.000012 -0.000000 0
0.000012 -0.000000 0
0.000011 -0.000000 0
0.000000 0.000000 0
0.000000 0.000000 0
0.000000 0.000000 0
-0.000000 0.000000 0
-0.000000 0.000000 0
-0.000000 0.000000 0
-0.000000 0.000000 0
0.000000 0.000000 0
0.000000 0.000000 0
0.000000 0.000000 0
0.000000 0.000000 0
0.000000 0.000000 0
0.000000 0.000000 0
0.000000 0.000000 0
0.000000 0.000000 0
0.000000 0.000000 0
0.000000 0.000000 0
0.000000 0.000000 0
0.000000 0.000000 0
0.000000 0.000000 0
0.000000 0.000000 0

CELL_DATA 400 
SCALARS pressure float 1 
LOOKUP_TABLE default 
0.242618
0.242565
0.242577
0.242623
0.242663
0.242675
0.242660
0.242634
0.242611
0.242601
0.242601
0.242608
0.242616
0.242621
0.242624
0.242624
0.242624
0.242623
0.242623
0.242623
0.219594
0.219624
0.219646
0.219647
0.219632
0.219614
0.219603
0.219603
0.219608
0.219616
0.219621
0.219624
0.219625
0.219624
0.219623
0.219622
0.219622
0.219622
0.219622
0.219622
0.196638
0.196651
0.196630
0.196603
0.196588
0.196592
0.196606
0.196621
0.196630
0.196632
0.196630
0.196625
0.196622
0.196620
0.196619
0.196620
0.196620
0.196621
0.196622
0.196622
0.173647
0.173628
0.173605
0.173594
0.173599
0.173613
0.173627
0.173634
0.173634
0.173629
0.173623
0.173619
0.173617
0.173617
0.173618
0.173620
0.173621
0.173622
0.173622
0.173623
0.150623
0.150617
0.150614
0.150615
0.150619
0.150624
0.150627
0.150626
0.150623
0.150620
0.150618
0.150617
0.150618
0.150619
0.150621
0.150622
0.150622
0.150622
0.150622
0.150623
0.127614
0.127626
0.127629
0.127626
0.127620
0.127617
0.127615
0.127615
0.127617
0.127619
0.127620
0.127621
0.127622
0.127622
0.127622
0.127622
0.127622
0.127622
0.127622
0.127622
0.104621
0.104632
0.104630
0.104622
0.104613
0.104610
0.104610
0.104614
0.104619
0.104623
0.104624
0.104623
0.104622
0.104621
0.104621
0.104621
0.104621
0.104622
0.104622
0.104622
0.081625
0.081628
0.081624
0.081618
0.081613
0.081613
0.081615
0.081619
0.081623
0.081624
0.081623
0.081622
0.081620
0.081620
0.081620
0.081621
0.081622
0.081622
0.081622
0.081623
0.058621
0.058623
0.058622
0.058621
0.058620
0.058620
0.058620
0.058621
0.058621
0.058621
0.058620
0.058620
0.058620
0.058621
0.058621
0.058622
0.058622
0.058622
0.058622
0.058623
0.035617
0.035622
0.035626
0.035627
0.035625
0.035622
0.035619
0.035618
0.035618
0.035619
0.035621
0.035622
0.035623
0.035623
0.035623
0.035622
0.035622
0.035622
0.035622
0.035623
0.012619
0.012624
0.012628
0.012628
0.012624
0.012620
0.012618
0.012618
0.012620
0.012622
0.012623
0.012624
0.012624
0.012623
0.012623
0.012622
0.012622
0.012622
0.012622
0.012623
-0.010378
-0.010376
-0.010375
-0.010375
-0.010377
-0.010378
-0.010379
-0.010378
-0.010377
-0.010376
-0.010376
-0.010376
-0.010376
-0.010377
-0.010377
-0.010377
-0.010377
-0.010377
-0.010377
-0.010377
-0.033378
-0.033378
-0.033377
-0.033375
-0.033374
-0.033374
-0.033375
-0.033376
-0.033376
-0.033376
-0.033376
-0.033376
-0.033376
-0.033376
-0.033376
-0.033377
-0.033377
-0.033377
-0.033377
-0.033377
-0.056378
-0.056378
-0.056375
-0.056373
-0.056372
-0.056373
-0.056375
-0.056376
-0.056376
-0.056376
-0.056375
-0.056375
-0.056375
-0.056375
-0.056376
-0.056376
-0.056377
-0.056377
-0.056377
-0.056377
-0.079377
-0.079377
-0.079375
-0.079373
-0.079373
-0.079374
-0.079375
-0.079375
-0.079375
-0.079375
-0.079374
-0.079374
-0.079375
-0.079375
-0.079376
-0.079376
-0.079377
-0.079377
-0.079377
-0.079377
-0.102376
-0.102376
-0.102376
-0.102374
-0.102374
-0.102374
-0.102374
-0.102374
-0.102374
-0.102374
-0.102374
-0.102374
-0.102375
-0.102375
-0.102376
-0.102376
-0.102376
-0.102377
-0.102377
-0.102377
-0.125375
-0.125377
-0.125376
-0.125375
-0.125373
-0.125373
-0.125373
-0.125373
-0.125374
-0.125374
-0.125375
-0.125375
-0.125375
-0.125375
-0.125375
-0.125376
-0.125376
-0.125377
-0.125377
-0.125377
-0.148375
-0.148376
-0.148376
-0.148374
-0.148373
-0.148373
-0.148373
-0.148374
-0.148374
-0.148375
-0.148375
-0.148375
-0.148375
-0.148375
-0.148375
-0.148376
-0.148376
-0.148377
-0.148377
-0.148377
-0.171375
-0.171375
-0.171375
-0.171375
-0.171374
-0.171374
-0.171373
-0.171374
-0.171374
-0.171374
-0.171374
-0.171375
-0.171375
-0.171375
-0.171375
-0.171376
-0.171376
-0.171377
-0.171377
-0.171377
-0.194374
-0.194375
-0.194376
-0.194375
-0.194375
-0.194374
-0.194373
-0.194373
-0.194374
-0.194374
-0.194374
-0.194375
-0.194375
-0.194375
-0.194375
-0.194376
-0.194376
-0.194377
-0.194377
-0.194377

SCALARS temperature float 1 
LOOKUP_TABLE default 
0.000000
0.000001
0.000004
0.000009
0.000016
0.000025
0.000036
0.000045
0.000051
0.000052
0.000047
0.000039
0.000029
0.000019
0.000012
0.000007
0.000003
0.000002
0.000001
0.000001
0.000000
0.000002
0.000006
0.000014
0.000026
0.000042
0.000060
0.000076
0.000086
0.000087
0.000079
0.000064
0.000047
0.000031
0.000019
0.000011
0.000006
0.000003
0.000001
0.000001
0.000000
0.000004
0.000013
0.000030
0.000055
0.000090
0.000129
0.000163
0.000185
0.000187
0.000168
0.000135
0.000098
0.000064
0.000039
0.000021
0.000011
0.000005
0.000003
0.000002
0.000001
0.000009
0.000029
0.000066
0.000124
0.000202
0.000292
0.000373
0.000423
0.000426
0.000380
0.000303
0.000217
0.000140
0.000083
0.000045
0.000023
0.000011
0.000006
0.000004
0.000002
0.000019
0.000061
0.000140
0.000267
0.000441
0.000643
0.000829
0.000944
0.000947
0.000840
0.000662
0.000467
0.000297
0.000172
0.000092
0.000046
0.000022
0.000011
0.000007
0.000004
0.000038
0.000120
0.000278
0.000536
0.000900
0.001332
0.001735
0.001985
0.001988
0.001748
0.001357
0.000939
0.000586
0.000333
0.000175
0.000086
0.000041
0.000021
0.000013
0.000007
0.000067
0.000216
0.000504
0.000988
0.001690
0.002544
0.003362
0.003873
0.003874
0.003370
0.002572
0.001743
0.001063
0.000592
0.000305
0.000148
0.000070
0.000035
0.000022
0.000011
0.000107
0.000349
0.000827
0.001650
0.002880
0.004428
0.005952
0.006920
0.006912
0.005942
0.004445
0.002942
0.001753
0.000954
0.000482
0.000230
0.000108
0.000054
0.000034
0.000016
0.000154
0.000505
0.001214
0.002465
0.004396
0.006908
0.009461
0.011116
0.011091
0.009415
0.006898
0.004456
0.002593
0.001383
0.000687
0.000324
0.000150
0.000074
0.000046
0.000020
0.000197
0.000650
0.001578
0.003252
0.005903
0.009457
0.013172
0.015626
0.015580
0.013080
0.009410
0.005954
0.003397
0.001783
0.000874
0.000408
0.000187
0.000092
0.000057
0.000023
0.000223
0.000738
0.001801
0.003739
0.006853
0.011099
0.015612
0.018628
0.018569
0.015494
0.011033
0.006900
0.003896
0.002027
0.000987
0.000458
0.000210
0.000103
0.000064
0.000023
0.000222
0.000736
0.001795
0.003720
0.006807
0.011008
0.015465
0.018443
0.018390
0.015360
0.010954
0.006864
0.003883
0.002024
0.000988
0.000459
0.000211
0.000103
0.000064
0.000020
0.000196
0.000647
0.001565
0.003209
0.005798
0.009250
0.012845
0.015218
0.015184
0.012782
0.009234
0.005872
0.003369
0.001778
0.000876
0.000411
0.000190
0.000094
0.000059
0.000016
0.000154
0.000504
0.001203
0.002427
0.004298
0.006713
0.009155
0.010737
0.010724
0.009138
0.006735
0.004383
0.002572
0.001384
0.000694
0.000330
0.000154
0.000077
0.000048
0.000011
0.000109
0.000352
0.000828
0.001636
0.002832
0.004322
0.005780
0.006706
0.006706
0.005791
0.004364
0.002915
0.001756
0.000968
0.000495
0.000240
0.000114
0.000057
0.000037
0.000007
0.000070
0.000224
0.000518
0.001004
0.001699
0.002537
0.003332
0.003829
0.003836
0.003354
0.002582
0.001769
0.001094
0.000618
0.000323
0.000160
0.000077
0.000040
0.000025
0.000004
0.000042
0.000133
0.000303
0.000576
0.000955
0.001399
0.001811
0.002065
0.002072
0.001832
0.001437
0.001008
0.000638
0.000369
0.000198
0.000100
0.000049
0.000026
0.000017
0.000003
0.000024
0.000077
0.000172
0.000322
0.000525
0.000758
0.000969
0.001099
0.001105
0.000986
0.000786
0.000562
0.000364
0.000215
0.000118
0.000061
0.000030
0.000016
0.000010
0.000002
0.000015
0.000046
0.000103
0.000190
0.000306
0.000436
0.000553
0.000625
0.000630
0.000567
0.000457
0.000332
0.000219
0.000132
0.000073
0.000038
0.000020
0.000010
0.000007
0.000001
0.000011
0.000033
0.000074
0.000136
0.000217
0.000307
0.000388
0.000438
0.000442
0.000399
0.000325
0.000238
0.000159
0.000097
0.000054
0.000029
0.000015
0.000008
0.000005


SCALARS Species_1 float 1 
LOOKUP_TABLE default 
0.000161
0.000517
0.000967
0.001564
0.002349
0.003339
0.004520
0.005835
0.007189
0.008454
0.009492
0.010181
0.010440
0.010252
0.009672
0.008814
0.007836
0.006909
0.006191
0.005801
0.000181
0.000578
0.001079
0.001742
0.002611
0.003704
0.005005
0.006450
0.007936
0.009321
0.010455
0.011205
0.011484
0.011275
0.010636
0.009695
0.008624
0.007610
0.006825
0.006398
0.000215
0.000686
0.001279
0.002060
0.003082
0.004364
0.005885
0.007573
0.009303
0.010912
0.012226
0.013091
0.013406
0.013155
0.012406
0.011307
0.010059
0.008881
0.007969
0.007474
0.000260
0.000829
0.001543
0.002482
0.003706
0.005239
0.007054
0.009064
0.011119
0.013027
0.014580
0.015597
0.015962
0.015653
0.014756
0.013447
0.011964
0.010565
0.009485
0.008899
0.000311
0.000990
0.001840
0.002956
0.004406
0.006220
0.008363
0.010731
0.013150
0.015390
0.017210
0.018397
0.018815
0.018443
0.017381
0.015838
0.014093
0.012448
0.011180
0.010492
0.000360
0.001148
0.002131
0.003418
0.005089
0.007174
0.009634
0.012350
0.015118
0.017680
0.019757
0.021106
0.021576
0.021143
0.019922
0.018153
0.016156
0.014276
0.012826
0.012041
0.000402
0.001281
0.002375
0.003804
0.005658
0.007967
0.010689
0.013689
0.016745
0.019570
0.021856
0.023339
0.023851
0.023368
0.022018
0.020065
0.017863
0.015790
0.014193
0.013328
0.000430
0.001369
0.002535
0.004058
0.006029
0.008482
0.011371
0.014552
0.017789
0.020779
0.023197
0.024764
0.025303
0.024789
0.023359
0.021292
0.018962
0.016770
0.015082
0.014167
0.000439
0.001399
0.002589
0.004141
0.006147
0.008642
0.011576
0.014806
0.018091
0.021123
0.023575
0.025162
0.025709
0.025189
0.023740
0.021647
0.019287
0.017067
0.015357
0.014431
0.000429
0.001366
0.002528
0.004040
0.005992
0.008418
0.011271
0.014408
0.017598
0.020542
0.022923
0.024465
0.024998
0.024496
0.023095
0.021068
0.018781
0.016630
0.014972
0.014075
0.000401
0.001275
0.002358
0.003767
0.005584
0.007841
0.010493
0.013409
0.016373
0.019109
0.021323
0.022759
0.023258
0.022798
0.021502
0.019625
0.017506
0.015512
0.013974
0.013142
0.000358
0.001138
0.002103
0.003358
0.004977
0.006985
0.009344
0.011937
0.014574
0.017009
0.018980
0.020261
0.020711
0.020309
0.019165
0.017503
0.015624
0.013854
0.012489
0.011750
0.000305
0.000971
0.001795
0.002865
0.004244
0.005954
0.007963
0.010172
0.012419
0.014494
0.016176
0.017272
0.017662
0.017328
0.016361
0.014953
0.013358
0.011855
0.010694
0.010065
0.000250
0.000793
0.001466
0.002340
0.003466
0.004862
0.006501
0.008304
0.010139
0.011835
0.013211
0.014112
0.014438
0.014172
0.013391
0.012248
0.010951
0.009727
0.008781
0.008268
0.000196
0.000622
0.001149
0.001834
0.002715
0.003809
0.005093
0.006506
0.007945
0.009276
0.010359
0.011070
0.011331
0.011131
0.010525
0.009635
0.008623
0.007666
0.006926
0.006525
0.000147
0.000469
0.000867
0.001383
0.002048
0.002873
0.003842
0.004909
0.005995
0.007003
0.007824
0.008366
0.008570
0.008424
0.007973
0.007306
0.006545
0.005825
0.005267
0.004963
0.000108
0.000343
0.000634
0.001012
0.001499
0.002103
0.002813
0.003595
0.004393
0.005134
0.005739
0.006141
0.006296
0.006195
0.005868
0.005383
0.004828
0.004301
0.003892
0.003670
0.000078
0.000248
0.000458
0.000732
0.001084
0.001522
0.002037
0.002605
0.003186
0.003726
0.004168
0.004464
0.004581
0.004512
0.004279
0.003930
0.003529
0.003147
0.002850
0.002689
0.000058
0.000185
0.000342
0.000546
0.000810
0.001138
0.001524
0.001950
0.002387
0.002793
0.003128
0.003353
0.003445
0.003396
0.003225
0.002965
0.002665
0.002379
0.002156
0.002035
0.000048
0.000153
0.000284
0.000454
0.000674
0.000947
0.001269
0.001625
0.001990
0.002331
0.002612
0.002803
0.002881
0.002843
0.002701
0.002485
0.002236
0.001997
0.001811
0.001709


SCALARS Species_2 float 1 
LOOKUP_TABLE default 
0.000112
0.000330
0.000526
0.000686
0.000799
0.000858
0.000864
0.000822
0.000743
0.000639
0.000525
0.000412
0.000309
0.000223
0.000154
0.000102
0.000066
0.000041
0.000027
0.000020
0.000149
0.000437
0.000696
0.000907
0.001055
0.001132
0.001139
0.001083
0.000978
0.000841
0.000690
0.000542
0.000407
0.000293
0.000203
0.000135
0.000087
0.000055
0.000036
0.000027
0.000225
0.000661
0.001051
0.001367
0.001588
0.001702
0.001711
0.001625
0.001466
0.001260
0.001033
0.000810
0.000609
0.000438
0.000303
0.000201
0.000129
0.000082