# vtk DataFile Version 2.0
generated by CFD-lab course output (written by Tobias Neckel) 
ASCII

DATASET STRUCTURED_GRID
DIMENSIONS  21 21 1 
POINTS 441 float

0.000000 0.000000 0
0.100000 0.000000 0
0.200000 0.000000 0
0.300000 0.000000 0
0.400000 0.000000 0
0.500000 0.000000 0
0.600000 0.000000 0
0.700000 0.000000 0
0.800000 0.000000 0
0.900000 0.000000 0
1.000000 0.000000 0
1.100000 0.000000 0
1.200000 0.000000 0
1.300000 0.000000 0
1.400000 0.000000 0
1.500000 0.000000 0
1.600000 0.000000 0
1.700000 0.000000 0
1.800000 0.000000 0
1.900000 0.000000 0
2.000000 0.000000 0
0.000000 0.100000 0
0.100000 0.100000 0
0.200000 0.100000 0
0.300000 0.100000 0
0.400000 0.100000 0
0.500000 0.100000 0
0.600000 0.100000 0
0.700000 0.100000 0
0.800000 0.100000 0
0.900000 0.100000 0
1.000000 0.100000 0
1.100000 0.100000 0
1.200000 0.100000 0
1.300000 0.100000 0
1.400000 0.100000 0
1.500000 0.100000 0
1.600000 0.100000 0
1.700000 0.100000 0
1.800000 0.100000 0
1.900000 0.100000 0
2.000000 0.100000 0
0.000000 0.200000 0
0.100000 0.200000 0
0.200000 0.200000 0
0.300000 0.200000 0
0.400000 0.200000 0
0.500000 0.200000 0
0.600000 0.200000 0
0.700000 0.200000 0
0.800000 0.200000 0
0.900000 0.200000 0
1.000000 0.200000 0
1.100000 0.200000 0
1.200000 0.200000 0
1.300000 0.200000 0
1.400000 0.200000 0
1.500000 0.200000 0
1.600000 0.200000 0
1.700000 0.200000 0
1.800000 0.200000 0
1.900000 0.200000 0
2.000000 0.200000 0
0.000000 0.300000 0
0.100000 0.300000 0
0.200000 0.300000 0
0.300000 0.300000 0
0.400000 0.300000 0
0.500000 0.300000 0
0.600000 0.300000 0
0.700000 0.300000 0
0.800000 0.300000 0
0.900000 0.300000 0
1.000000 0.300000 0
1.100000 0.300000 0
1.200000 0.300000 0
1.300000 0.300000 0
1.400000 0.300000 0
1.500000 0.300000 0
1.600000 0.300000 0
1.700000 0.300000 0
1.800000 0.300000 0
1.900000 0.300000 0
2.000000 0.300000 0
0.000000 0.400000 0
0.100000 0.400000 0
0.200000 0.400000 0
0.300000 0.400000 0
0.400000 0.400000 0
0.500000 0.400000 0
0.600000 0.400000 0
0.700000 0.400000 0
0.800000 0.400000 0
0.900000 0.400000 0
1.000000 0.400000 0
1.100000 0.400000 0
1.200000 0.400000 0
1.300000 0.400000 0
1.400000 0.400000 0
1.500000 0.400000 0
1.600000 0.400000 0
1.700000 0.400000 0
1.800000 0.400000 0
1.900000 0.400000 0
2.000000 0.400000 0
0.000000 0.500000 0
0.100000 0.500000 0
0.200000 0.500000 0
0.300000 0.500000 0
0.400000 0.500000 0
0.500000 0.500000 0
0.600000 0.500000 0
0.700000 0.500000 0
0.800000 0.500000 0
0.900000 0.500000 0
1.000000 0.500000 0
1.100000 0.500000 0
1.200000 0.500000 0
1.300000 0.500000 0
1.400000 0.500000 0
1.500000 0.500000 0
1.600000 0.500000 0
1.700000 0.500000 0
1.800000 0.500000 0
1.900000 0.500000 0
2.000000 0.500000 0
0.000000 0.600000 0
0.100000 0.600000 0
0.200000 0.600000 0
0.300000 0.600000 0
0.400000 0.600000 0
0.500000 0.600000 0
0.600000 0.600000 0
0.700000 0.600000 0
0.800000 0.600000 0
0.900000 0.600000 0
1.000000 0.600000 0
1.100000 0.600000 0
1.200000 0.600000 0
1.300000 0.600000 0
1.400000 0.600000 0
1.500000 0.600000 0
1.600000 0.600000 0
1.700000 0.600000 0
1.800000 0.600000 0
1.900000 0.600000 0
2.000000 0.600000 0
0.000000 0.700000 0
0.100000 0.700000 0
0.200000 0.700000 0
0.300000 0.700000 0
0.400000 0.700000 0
0.500000 0.700000 0
0.600000 0.700000 0
0.700000 0.700000 0
0.800000 0.700000 0
0.900000 0.700000 0
1.000000 0.700000 0
1.100000 0.700000 0
1.200000 0.700000 0
1.300000 0.700000 0
1.400000 0.700000 0
1.500000 0.700000 0
1.600000 0.700000 0
1.700000 0.700000 0
1.800000 0.700000 0
1.900000 0.700000 0
2.000000 0.700000 0
0.000000 0.800000 0
0.100000 0.800000 0
0.200000 0.800000 0
0.300000 0.800000 0
0.400000 0.800000 0
0.500000 0.800000 0
0.600000 0.800000 0
0.700000 0.800000 0
0.800000 0.800000 0
0.900000 0.800000 0
1.000000 0.800000 0
1.100000 0.800000 0
1.200000 0.800000 0
1.300000 0.800000 0
1.400000 0.800000 0
1.500000 0.800000 0
1.600000 0.800000 0
1.700000 0.800000 0
1.800000 0.800000 0
1.900000 0.800000 0
2.000000 0.800000 0
0.000000 0.900000 0
0.100000 0.900000 0
0.200000 0.900000 0
0.300000 0.900000 0
0.400000 0.900000 0
0.500000 0.900000 0
0.600000 0.900000 0
0.700000 0.900000 0
0.800000 0.900000 0
0.900000 0.900000 0
1.000000 0.900000 0
1.100000 0.900000 0
1.200000 0.900000 0
1.300000 0.900000 0
1.400000 0.900000 0
1.500000 0.900000 0
1.600000 0.900000 0
1.700000 0.900000 0
1.800000 0.900000 0
1.900000 0.900000 0
2.000000 0.900000 0
0.000000 1.000000 0
0.100000 1.000000 0
0.200000 1.000000 0
0.300000 1.000000 0
0.400000 1.000000 0
0.500000 1.000000 0
0.600000 1.000000 0
0.700000 1.000000 0
0.800000 1.000000 0
0.900000 1.000000 0
1.000000 1.000000 0
1.100000 1.000000 0
1.200000 1.000000 0
1.300000 1.000000 0
1.400000 1.000000 0
1.500000 1.000000 0
1.600000 1.000000 0
1.700000 1.000000 0
1.800000 1.000000 0
1.900000 1.000000 0
2.000000 1.000000 0
0.000000 1.100000 0
0.100000 1.100000 0
0.200000 1.100000 0
0.300000 1.100000 0
0.400000 1.100000 0
0.500000 1.100000 0
0.600000 1.100000 0
0.700000 1.100000 0
0.800000 1.100000 0
0.900000 1.100000 0
1.000000 1.100000 0
1.100000 1.100000 0
1.200000 1.100000 0
1.300000 1.100000 0
1.400000 1.100000 0
1.500000 1.100000 0
1.600000 1.100000 0
1.700000 1.100000 0
1.800000 1.100000 0
1.900000 1.100000 0
2.000000 1.100000 0
0.000000 1.200000 0
0.100000 1.200000 0
0.200000 1.200000 0
0.300000 1.200000 0
0.400000 1.200000 0
0.500000 1.200000 0
0.600000 1.200000 0
0.700000 1.200000 0
0.800000 1.200000 0
0.900000 1.200000 0
1.000000 1.200000 0
1.100000 1.200000 0
1.200000 1.200000 0
1.300000 1.200000 0
1.400000 1.200000 0
1.500000 1.200000 0
1.600000 1.200000 0
1.700000 1.200000 0
1.800000 1.200000 0
1.900000 1.200000 0
2.000000 1.200000 0
0.000000 1.300000 0
0.100000 1.300000 0
0.200000 1.300000 0
0.300000 1.300000 0
0.400000 1.300000 0
0.500000 1.300000 0
0.600000 1.300000 0
0.700000 1.300000 0
0.800000 1.300000 0
0.900000 1.300000 0
1.000000 1.300000 0
1.100000 1.300000 0
1.200000 1.300000 0
1.300000 1.300000 0
1.400000 1.300000 0
1.500000 1.300000 0
1.600000 1.300000 0
1.700000 1.300000 0
1.800000 1.300000 0
1.900000 1.300000 0
2.000000 1.300000 0
0.000000 1.400000 0
0.100000 1.400000 0
0.200000 1.400000 0
0.300000 1.400000 0
0.400000 1.400000 0
0.500000 1.400000 0
0.600000 1.400000 0
0.700000 1.400000 0
0.800000 1.400000 0
0.900000 1.400000 0
1.000000 1.400000 0
1.100000 1.400000 0
1.200000 1.400000 0
1.300000 1.400000 0
1.400000 1.400000 0
1.500000 1.400000 0
1.600000 1.400000 0
1.700000 1.400000 0
1.800000 1.400000 0
1.900000 1.400000 0
2.000000 1.400000 0
0.000000 1.500000 0
0.100000 1.500000 0
0.200000 1.500000 0
0.300000 1.500000 0
0.400000 1.500000 0
0.500000 1.500000 0
0.600000 1.500000 0
0.700000 1.500000 0
0.800000 1.500000 0
0.900000 1.500000 0
1.000000 1.500000 0
1.100000 1.500000 0
1.200000 1.500000 0
1.300000 1.500000 0
1.400000 1.500000 0
1.500000 1.500000 0
1.600000 1.500000 0
1.700000 1.500000 0
1.800000 1.500000 0
1.900000 1.500000 0
2.000000 1.500000 0
0.000000 1.600000 0
0.100000 1.600000 0
0.200000 1.600000 0
0.300000 1.600000 0
0.400000 1.600000 0
0.500000 1.600000 0
0.600000 1.600000 0
0.700000 1.600000 0
0.800000 1.600000 0
0.900000 1.600000 0
1.000000 1.600000 0
1.100000 1.600000 0
1.200000 1.600000 0
1.300000 1.600000 0
1.400000 1.600000 0
1.500000 1.600000 0
1.600000 1.600000 0
1.700000 1.600000 0
1.800000 1.600000 0
1.900000 1.600000 0
2.000000 1.600000 0
0.000000 1.700000 0
0.100000 1.700000 0
0.200000 1.700000 0
0.300000 1.700000 0
0.400000 1.700000 0
0.500000 1.700000 0
0.600000 1.700000 0
0.700000 1.700000 0
0.800000 1.700000 0
0.900000 1.700000 0
1.000000 1.700000 0
1.100000 1.700000 0
1.200000 1.700000 0
1.300000 1.700000 0
1.400000 1.700000 0
1.500000 1.700000 0
1.600000 1.700000 0
1.700000 1.700000 0
1.800000 1.700000 0
1.900000 1.700000 0
2.000000 1.700000 0
0.000000 1.800000 0
0.100000 1.800000 0
0.200000 1.800000 0
0.300000 1.800000 0
0.400000 1.800000 0
0.500000 1.800000 0
0.600000 1.800000 0
0.700000 1.800000 0
0.800000 1.800000 0
0.900000 1.800000 0
1.000000 1.800000 0
1.100000 1.800000 0
1.200000 1.800000 0
1.300000 1.800000 0
1.400000 1.800000 0
1.500000 1.800000 0
1.600000 1.800000 0
1.700000 1.800000 0
1.800000 1.800000 0
1.900000 1.800000 0
2.000000 1.800000 0
0.000000 1.900000 0
0.100000 1.900000 0
0.200000 1.900000 0
0.300000 1.900000 0
0.400000 1.900000 0
0.500000 1.900000 0
0.600000 1.900000 0
0.700000 1.900000 0
0.800000 1.900000 0
0.900000 1.900000 0
1.000000 1.900000 0
1.100000 1.900000 0
1.200000 1.900000 0
1.300000 1.900000 0
1.400000 1.900000 0
1.500000 1.900000 0
1.600000 1.900000 0
1.700000 1.900000 0
1.800000 1.900000 0
1.900000 1.900000 0
2.000000 1.900000 0
0.000000 2.000000 0
0.100000 2.000000 0
0.200000 2.000000 0
0.300000 2.000000 0
0.400000 2.000000 0
0.500000 2.000000 0
0.600000 2.000000 0
0.700000 2.000000 0
0.800000 2.000000 0
0.900000 2.000000 0
1.000000 2.000000 0
1.100000 2.000000 0
1.200000 2.000000 0
1.300000 2.000000 0
1.400000 2.000000 0
1.500000 2.000000 0
1.600000 2.000000 0
1.700000 2.000000 0
1.800000 2.000000 0
1.900000 2.000000 0
2.000000 2.000000 0
POINT_DATA 441 

VECTORS velocity float
0.000000 0.000000 0
0.000009 0.000000 0
-0.000002 0.000000 0
-0.000008 0.000000 0
-0.000007 0.000000 0
-0.000003 0.000000 0
0.000003 0.000000 0
0.000005 0.000000 0
0.000005 0.000000 0
0.000003 0.000000 0
0.000000 0.000000 0
-0.000002 0.000000 0
-0.000002 0.000000 0
-0.000001 0.000000 0
-0.000001 0.000000 0
-0.000000 0.000000 0
0.000000 0.000000 0
0.000000 0.000000 0
0.000000 0.000000 0
-0.000000 0.000000 0
-0.000000 0.000000 0
0.000000 0.000004 0
0.000024 -0.000031 0
0.000050 -0.000033 0
0.000073 -0.000021 0
0.000090 -0.000003 0
0.000095 0.000013 0
0.000086 0.000024 0
0.000063 0.000030 0
0.000029 0.000033 0
-0.000011 0.000033 0
-0.000054 0.000032 0
-0.000094 0.000030 0
-0.000128 0.000026 0
-0.000154 0.000020 0
-0.000173 0.000015 0
-0.000184 0.000009 0
-0.000190 0.000004 0
-0.000191 0.000001 0
-0.000191 -0.000001 0
-0.000190 -0.000000 0
-0.000190 -0.000000 0
0.000000 -0.000008 0
0.000025 -0.000058 0
0.000059 -0.000049 0
0.000086 -0.000030 0
0.000101 -0.000009 0
0.000103 0.000011 0
0.000090 0.000031 0
0.000064 0.000050 0
0.000027 0.000067 0
-0.000017 0.000078 0
-0.000064 0.000080 0
-0.000109 0.000075 0
-0.000147 0.000063 0
-0.000176 0.000047 0
-0.000196 0.000031 0
-0.000207 0.000018 0
-0.000212 0.000007 0
-0.000214 0.000001 0
-0.000213 -0.000002 0
-0.000212 -0.000001 0
-0.000211 -0.000001 0
0.000000 -0.000002 0
0.000031 -0.000080 0
0.000066 -0.000075 0
0.000091 -0.000056 0
0.000106 -0.000029 0
0.000108 0.000006 0
0.000097 0.000045 0
0.000072 0.000084 0
0.000033 0.000114 0
-0.000016 0.000131 0
-0.000068 0.000132 0
-0.000116 0.000119 0
-0.000156 0.000096 0
-0.000184 0.000070 0
-0.000202 0.000045 0
-0.000211 0.000024 0
-0.000214 0.000009 0
-0.000213 0.000001 0
-0.000211 -0.000003 0
-0.000209 -0.000002 0
-0.000209 -0.000001 0
0.000000 0.000005 0
0.000034 -0.000112 0
0.000069 -0.000113 0
0.000098 -0.000086 0
0.000117 -0.000043 0
0.000124 0.000011 0
0.000115 0.000070 0
0.000087 0.000125 0
0.000042 0.000166 0
-0.000015 0.000186 0
-0.000074 0.000183 0
-0.000127 0.000161 0
-0.000168 0.000128 0
-0.000195 0.000090 0
-0.000209 0.000056 0
-0.000213 0.000028 0
-0.000212 0.000009 0
-0.000208 -0.000001 0
-0.000204 -0.000005 0
-0.000202 -0.000003 0
-0.000202 -0.000001 0
0.000000 0.000002 0
0.000033 -0.000152 0
0.000073 -0.000150 0
0.000109 -0.000111 0
0.000134 -0.000054 0
0.000146 0.000016 0
0.000137 0.000092 0
0.000105 0.000164 0
0.000053 0.000218 0
-0.000014 0.000245 0
-0.000082 0.000240 0
-0.000140 0.000209 0
-0.000182 0.000161 0
-0.000205 0.000110 0
-0.000215 0.000064 0
-0.000214 0.000028 0
-0.000208 0.000005 0
-0.000201 -0.000007 0
-0.000194 -0.000009 0
-0.000191 -0.000005 0
-0.000190 -0.000002 0
0.000000 -0.000002 0
0.000034 -0.000190 0
0.000079 -0.000186 0
0.000119 -0.000140 0
0.000149 -0.000073 0
0.000164 0.000012 0
0.000157 0.000109 0
0.000124 0.000205 0
0.000065 0.000280 0
-0.000011 0.000316 0
-0.000088 0.000308 0
-0.000152 0.000261 0
-0.000193 0.000194 0
-0.000213 0.000125 0
-0.000217 0.000065 0
-0.000210 0.000022 0
-0.000199 -0.000004 0
-0.000188 -0.000015 0
-0.000179 -0.000015 0
-0.000174 -0.000007 0
-0.000174 -0.000002 0
0.000000 -0.000001 0
0.000035 -0.000228 0
0.000080 -0.000227 0
0.000121 -0.000178 0
0.000154 -0.000101 0
0.000173 0.000003 0
0.000171 0.000127 0
0.000139 0.000252 0
0.000076 0.000352 0
-0.000007 0.000400 0
-0.000091 0.000384 0
-0.000158 0.000316 0
-0.000197 0.000224 0
-0.000212 0.000133 0
-0.000208 0.000060 0
-0.000196 0.000010 0
-0.000181 -0.000017 0
-0.000167 -0.000027 0
-0.000156 -0.000023 0
-0.000151 -0.000010 0
-0.000150 -0.000002 0
0.000000 0.000001 0
0.000033 -0.000267 0
0.000073 -0.000271 0
0.000111 -0.000218 0
0.000145 -0.000130 0
0.000167 -0.000008 0
0.000169 0.000143 0
0.000141 0.000301 0
0.000080 0.000428 0
-0.000003 0.000487 0
-0.000088 0.000460 0
-0.000151 0.000368 0
-0.000185 0.000247 0
-0.000192 0.000135 0
-0.000184 0.000049 0
-0.000167 -0.000006 0
-0.000150 -0.000033 0
-0.000135 -0.000040 0
-0.000125 -0.000031 0
-0.000119 -0.000013 0
-0.000119 -0.000002 0
0.000000 0.000000 0
0.000024 -0.000302 0
0.000056 -0.000308 0
0.000088 -0.000252 0
0.000116 -0.000156 0
0.000137 -0.000019 0
0.000141 0.000155 0
0.000120 0.000343 0
0.000071 0.000497 0
0.000000 0.000567 0
-0.000071 0.000531 0
-0.000122 0.000412 0
-0.000146 0.000264 0
-0.000148 0.000131 0
-0.000137 0.000035 0
-0.000122 -0.000023 0
-0.000106 -0.000049 0
-0.000093 -0.000052 0
-0.000084 -0.000039 0
-0.000079 -0.000016 0
-0.000079 -0.000002 0
0.000000 -0.000001 0
0.000013 -0.000325 0
0.000032 -0.000333 0
0.000050 -0.000276 0
0.000067 -0.000177 0
0.000080 -0.000031 0
0.000084 0.000159 0
0.000073 0.000370 0
0.000045 0.000547 0
0.000004 0.000627 0
-0.000037 0.000582 0
-0.000066 0.000443 0
-0.000078 0.000274 0
-0.000078 0.000126 0
-0.000070 0.000023 0
-0.000060 -0.000037 0
-0.000050 -0.000062 0
-0.000042 -0.000062 0
-0.000036 -0.000045 0
-0.000033 -0.000018 0
-0.000033 -0.000003 0
0.000000 -0.000001 0
0.000001 -0.000333 0
0.000002 -0.000343 0
0.000003 -0.000285 0
0.000004 -0.000186 0
0.000005 -0.000037 0
0.000006 0.000160 0
0.000007 0.000380 0
0.000007 0.000566 0
0.000008 0.000650 0
0.000008 0.000601 0
0.000008 0.000454 0
0.000009 0.000276 0
0.000010 0.000123 0
0.000012 0.000017 0
0.000013 -0.000043 0
0.000014 -0.000067 0
0.000015 -0.000066 0
0.000016 -0.000048 0
0.000017 -0.000019 0
0.000017 -0.000003 0
0.000000 0.000000 0
-0.000013 -0.000326 0
-0.000029 -0.000335 0
-0.000045 -0.000278 0
-0.000060 -0.000179 0
-0.000071 -0.000034 0
-0.000073 0.000157 0
-0.000061 0.000369 0
-0.000031 0.000547 0
0.000011 0.000627 0
0.000053 0.000582 0
0.000083 0.000442 0
0.000097 0.000272 0
0.000099 0.000124 0
0.000094 0.000020 0
0.000086 -0.000040 0
0.000079 -0.000064 0
0.000073 -0.000064 0
0.000070 -0.000046 0
0.000068 -0.000018 0
0.000068 -0.000003 0
0.000000 -0.000000 0
-0.000024 -0.000305 0
-0.000055 -0.000311 0
-0.000085 -0.000254 0
-0.000111 -0.000160 0
-0.000130 -0.000024 0
-0.000133 0.000150 0
-0.000111 0.000338 0
-0.000059 0.000495 0
0.000013 0.000566 0
0.000086 0.000529 0
0.000139 0.000409 0
0.000166 0.000260 0
0.000171 0.000126 0
0.000163 0.000030 0
0.000151 -0.000028 0
0.000138 -0.000054 0
0.000127 -0.000057 0
0.000120 -0.000042 0
0.000116 -0.000017 0
0.000116 -0.000002 0
0.000000 -0.000000 0
-0.000033 -0.000272 0
-0.000073 -0.000275 0
-0.000112 -0.000221 0
-0.000145 -0.000133 0
-0.000166 -0.000012 0
-0.000166 0.000137 0
-0.000136 0.000295 0
-0.000073 0.000423 0
0.000014 0.000482 0
0.000103 0.000455 0
0.000170 0.000362 0
0.000207 0.000240 0
0.000219 0.000127 0
0.000213 0.000041 0
0.000200 -0.000014 0
0.000186 -0.000041 0
0.000173 -0.000046 0
0.000164 -0.000035 0
0.000159 -0.000014 0
0.000159 -0.000002 0
0.000000 -0.000000 0
-0.000038 -0.000232 0
-0.000084 -0.000232 0
-0.000126 -0.000182 0
-0.000160 -0.000105 0
-0.000180 -0.000002 0
-0.000176 0.000120 0
-0.000141 0.000244 0
-0.000074 0.000344 0
0.000015 0.000391 0
0.000106 0.000374 0
0.000179 0.000305 0
0.000223 0.000212 0
0.000242 0.000121 0
0.000243 0.000048 0
0.000234 -0.000001 0
0.000222 -0.000027 0
0.000210 -0.000035 0
0.000201 -0.000028 0
0.000196 -0.000012 0
0.000195 -0.000002 0
0.000000 -0.000000 0
-0.000041 -0.000188 0
-0.000089 -0.000186 0
-0.000133 -0.000144 0
-0.000165 -0.000080 0
-0.000181 0.000003 0
-0.000173 0.000099 0
-0.000135 0.000193 0
-0.000070 0.000267 0
0.000015 0.000302 0
0.000101 0.000292 0
0.000174 0.000244 0
0.000224 0.000176 0
0.000251 0.000107 0
0.000259 0.000049 0
0.000256 0.000008 0
0.000248 -0.000016 0
0.000238 -0.000025 0
0.000230 -0.000021 0
0.000225 -0.000009 0
0.000225 -0.000002 0
0.000000 -0.000000 0
-0.000043 -0.000143 0
-0.000093 -0.000140 0
-0.000136 -0.000107 0
-0.000167 -0.000057 0
-0.000179 0.000005 0
-0.000167 0.000075 0
-0.000129 0.000142 0
-0.000066 0.000194 0
0.000012 0.000219 0
0.000094 0.000214 0
0.000166 0.000182 0
0.000219 0.000135 0
0.000252 0.000086 0
0.000267 0.000042 0
0.000270 0.000010 0
0.000266 -0.000009 0
0.000259 -0.000017 0
0.000252 -0.000015 0
0.000248 -0.000007 0
0.000248 -0.000001 0
0.000000 -0.000000 0
-0.000045 -0.000095 0
-0.000097 -0.000093 0
-0.000141 -0.000070 0
-0.000171 -0.000037 0
-0.000181 0.000004 0
-0.000167 0.000049 0
-0.000128 0.000092 0
-0.000068 0.000125 0
0.000008 0.000141 0
0.000087 0.000138 0
0.000158 0.000119 0
0.000214 0.000090 0
0.000251 0.000059 0
0.000272 0.000030 0
0.000279 0.000009 0
0.000278 -0.000005 0
0.000273 -0.000011 0
0.000267 -0.000010 0
0.000263 -0.000005 0
0.000262 -0.000001 0
0.000000 -0.000000 0
-0.000045 -0.000045 0
-0.000095 -0.000044 0
-0.000138 -0.000033 0
-0.000166 -0.000018 0
-0.000175 0.000002 0
-0.000162 0.000023 0
-0.000125 0.000042 0
-0.000069 0.000057 0
-0.000001 0.000065 0
0.000072 0.000064 0
0.000138 0.000055 0
0.000191 0.000042 0
0.000228 0.000028 0
0.000250 0.000014 0
0.000258 0.000004 0
0.000258 -0.000003 0
0.000253 -0.000006 0
0.000247 -0.000005 0
0.000243 -0.000002 0
0.000243 -0.000000 0
0.000000 0.000000 0
0.000000 0.000000 0
-0.000000 0.000000 0
-0.000000 0.000000 0
-0.000000 0.000000 0
-0.000000 0.000000 0
-0.000000 0.000000 0
-0.000000 0.000000 0
-0.000000 0.000000 0
-0.000000 0.000000 0
0.000000 0.000000 0
0.000000 0.000000 0
0.000000 0.000000 0
0.000000 0.000000 0
0.000000 0.000000 0
0.000000 0.000000 0
0.000000 0.000000 0
0.000000 0.000000 0
0.000000 0.000000 0
0.000000 0.000000 0
0.000000 0.000000 0

CELL_DATA 400 
SCALARS pressure float 1 
LOOKUP_TABLE default 
0.242608
0.242574
0.242582
0.242613
0.242643
0.242653
0.242643
0.242622
0.242602
0.242592
0.242592
0.242598
0.242606
0.242612
0.242615
0.242615
0.242615
0.242614
0.242615
0.242615
0.219594
0.219615
0.219633
0.219635
0.219623
0.219607
0.219596
0.219593
0.219598
0.219606
0.219612
0.219615
0.219616
0.219615
0.219613
0.219612
0.219613
0.219613
0.219614
0.219615
0.196627
0.196637
0.196622
0.196600
0.196586
0.196586
0.196597
0.196612
0.196621
0.196624
0.196621
0.196616
0.196611
0.196609
0.196609
0.196611
0.196612
0.196614
0.196615
0.196616
0.173635
0.173619
0.173599
0.173590
0.173595
0.173608
0.173620
0.173626
0.173625
0.173619
0.173612
0.173608
0.173607
0.173609
0.173611
0.173613
0.173614
0.173615
0.173616
0.173616
0.150616
0.150608
0.150607
0.150612
0.150617
0.150620
0.150619
0.150616
0.150612
0.150609
0.150608
0.150609
0.150611
0.150613
0.150614
0.150615
0.150615
0.150616
0.150616
0.150617
0.127609
0.127618
0.127624
0.127622
0.127616
0.127610
0.127606
0.127606
0.127608
0.127611
0.127614
0.127615
0.127615
0.127615
0.127615
0.127615
0.127615
0.127616
0.127617
0.127617
0.104618
0.104626
0.104623
0.104615
0.104607
0.104604
0.104606
0.104610
0.104615
0.104617
0.104617
0.104616
0.104615
0.104614
0.104614
0.104615
0.104616
0.104617
0.104617
0.104618
0.081621
0.081621
0.081617
0.081612
0.081610
0.081611
0.081614
0.081616
0.081617
0.081617
0.081616
0.081615
0.081615
0.081615
0.081616
0.081617
0.081617
0.081618
0.081618
0.081619
0.058617
0.058618
0.058619
0.058619
0.058619
0.058618
0.058617
0.058616
0.058615
0.058615
0.058615
0.058616
0.058617
0.058618
0.058618
0.058618
0.058619
0.058619
0.058619
0.058620
0.035616
0.035621
0.035624
0.035624
0.035622
0.035618
0.035615
0.035615
0.035616
0.035617
0.035619
0.035620
0.035620
0.035620
0.035620
0.035620
0.035620
0.035620
0.035620
0.035621
0.012620
0.012624
0.012625
0.012624
0.012621
0.012618
0.012618
0.012619
0.012620
0.012621
0.012622
0.012622
0.012622
0.012621
0.012621
0.012621
0.012621
0.012621
0.012621
0.012622
-0.010377
-0.010376
-0.010376
-0.010376
-0.010377
-0.010377
-0.010377
-0.010377
-0.010376
-0.010376
-0.010376
-0.010376
-0.010376
-0.010377
-0.010377
-0.010377
-0.010377
-0.010377
-0.010377
-0.010377
-0.033376
-0.033376
-0.033375
-0.033373
-0.033373
-0.033373
-0.033373
-0.033374
-0.033374
-0.033374
-0.033374
-0.033374
-0.033374
-0.033374
-0.033375
-0.033375
-0.033376
-0.033376
-0.033376
-0.033376
-0.056375
-0.056374
-0.056372
-0.056371
-0.056370
-0.056371
-0.056372
-0.056372
-0.056372
-0.056372
-0.056371
-0.056371
-0.056372
-0.056372
-0.056373
-0.056374
-0.056374
-0.056375
-0.056375
-0.056375
-0.079373
-0.079372
-0.079371
-0.079370
-0.079370
-0.079370
-0.079370
-0.079370
-0.079369
-0.079369
-0.079369
-0.079369
-0.079370
-0.079371
-0.079371
-0.079372
-0.079373
-0.079373
-0.079374
-0.079375
-0.102371
-0.102371
-0.102371
-0.102370
-0.102369
-0.102368
-0.102368
-0.102367
-0.102367
-0.102367
-0.102368
-0.102368
-0.102369
-0.102369
-0.102370
-0.102371
-0.102371
-0.102372
-0.102373
-0.102374
-0.125370
-0.125371
-0.125370
-0.125369
-0.125367
-0.125367
-0.125366
-0.125366
-0.125366
-0.125366
-0.125366
-0.125367
-0.125367
-0.125368
-0.125369
-0.125369
-0.125370
-0.125371
-0.125372
-0.125373
-0.148369
-0.148370
-0.148369
-0.148368
-0.148367
-0.148366
-0.148365
-0.148365
-0.148365
-0.148365
-0.148365
-0.148365
-0.148366
-0.148367
-0.148367
-0.148368
-0.148369
-0.148370
-0.148371
-0.148372
-0.171369
-0.171369
-0.171368
-0.171367
-0.171366
-0.171365
-0.171364
-0.171364
-0.171364
-0.171364
-0.171364
-0.171364
-0.171365
-0.171365
-0.171366
-0.171367
-0.171368
-0.171369
-0.171370
-0.171371
-0.194368
-0.194368
-0.194368
-0.194367
-0.194366
-0.194364
-0.194363
-0.194363
-0.194362
-0.194362
-0.194362
-0.194363
-0.194363
-0.194364
-0.194365
-0.194366
-0.194367
-0.194368
-0.194369
-0.194370

SCALARS temperature float 1 
LOOKUP_TABLE default 
0.000032
0.000247
0.000662
0.001244
0.001947
0.002710
0.003462
0.004134
0.004663
0.005008
0.005157
0.005125
0.004948
0.004675
0.004356
0.004032
0.003740
0.003504
0.003340
0.003256
0.000034
0.000263
0.000705
0.001326
0.002077
0.002894
0.003701
0.004418
0.004978
0.005336
0.005477
0.005422
0.005214
0.004905
0.004551
0.004198
0.003882
0.003628
0.003453
0.003365
0.000039
0.000297
0.000795
0.001499
0.002354
0.003287
0.004208
0.005024
0.005650
0.006031
0.006153
0.006045
0.005763
0.005374
0.004944
0.004526
0.004159
0.003869
0.003670
0.003570
0.000046
0.000351
0.000942
0.001782
0.002809
0.003939
0.005058
0.006043
0.006782
0.007197
0.007275
0.007064
0.006645
0.006113
0.005552
0.005024
0.004573
0.004223
0.003986
0.003868
0.000057
0.000429
0.001154
0.002196
0.003487
0.004923
0.006358
0.007616
0.008532
0.008990
0.008978
0.008579
0.007927
0.007159
0.006391
0.005697
0.005122
0.004686
0.004395
0.004252
0.000071
0.000532
0.001441
0.002765
0.004433
0.006322
0.008238
0.009921
0.011109
0.011618
0.011433
0.010711
0.009677
0.008544
0.007468
0.006537
0.005792
0.005241
0.004881
0.004705
0.000089
0.000661
0.001800
0.003490
0.005670
0.008198
0.010820
0.013144
0.014743
0.015302
0.014810
0.013559
0.011933
0.010264
0.008760
0.007516
0.006553
0.005860
0.005415
0.005200
0.000109
0.000806
0.002211
0.004339
0.007160
0.010529
0.014125
0.017371
0.019566
0.020170
0.019180
0.017122
0.014645
0.012248
0.010195
0.008568
0.007350
0.006498
0.005961
0.005704
0.000129
0.000950
0.002628
0.005221
0.008755
0.013118
0.017926
0.022369
0.025351
0.025988
0.024292
0.021146
0.017580
0.014307
0.011632
0.009590
0.008110
0.007098
0.006471
0.006172
0.000146
0.001071
0.002981
0.005982
0.010173
0.015507
0.021557
0.027282
0.031121
0.031783
0.029293
0.024957
0.020256
0.016118
0.012859
0.010448
0.008744
0.007598
0.006895
0.006562
0.000156
0.001143
0.003195
0.006449
0.011058
0.017039
0.023952
0.030600
0.035064
0.035749
0.032686
0.027495
0.022004
0.017290
0.013654
0.011014
0.009171
0.007942
0.007192
0.006837
0.000158
0.001156
0.003229
0.006514
0.011163
0.017197
0.024179
0.030918
0.035466
0.036170
0.033076
0.027833
0.022296
0.017544
0.013876
0.011210
0.009346
0.008101
0.007340
0.006978
0.000152
0.001109
0.003083
0.006176
0.010486
0.015968
0.022208
0.028165
0.032214
0.032944
0.030382
0.025919
0.021100
0.016861
0.013513
0.011028
0.009263
0.008069
0.007334
0.006982
0.000139
0.001014
0.002798
0.005544
0.009269
0.013860
0.018937
0.023683
0.026927
0.027668
0.025912
0.022628
0.018916
0.015504
0.012699
0.010541
0.008964
0.007876
0.007195
0.006866
0.000123
0.000896
0.002451
0.004792
0.007874
0.011542
0.015461
0.019034
0.021500
0.022233
0.021223
0.019054
0.016429
0.013871
0.011656
0.009876
0.008528
0.007572
0.006963
0.006665
0.000106
0.000778
0.002111
0.004075
0.006588
0.009483
0.012480
0.015154
0.017030
0.017739
0.017261
0.015923
0.014148
0.012296
0.010598
0.009167
0.008041
0.007219
0.006685
0.006419
0.000092
0.000676
0.001823
0.003482
0.005556
0.007884
0.010235
0.012305
0.013790
0.014468
0.014317
0.013514
0.012318
0.010974
0.009669
0.008518
0.007578
0.006873
0.006405
0.006170
0.000081
0.000599
0.001607
0.003046
0.004815
0.006765
0.008702
0.010399
0.011645
0.012294
0.012322
0.011834
0.010996
0.009983
0.008947
0.007995
0.007194
0.006579
0.006164
0.005953
0.000074
0.000548
0.001466
0.002766
0.004348
0.006073
0.007770
0.009255
0.010367
0.010994
0.011112
0.010793
0.010154
0.009335
0.008462
0.007635
0.006924
0.006368
0.005988
0.005794
0.000070
0.000522
0.001396
0.002628
0.004121
0.005742
0.007331
0.008722
0.009773
0.010388
0.010544
0.010296
0.009745
0.009012
0.008215
0.007449
0.006781
0.006255
0.005894
0.005709


SCALARS Species_1 float 1 
LOOKUP_TABLE default 
0.000524
0.001568
0.002597
0.003603
0.004579
0.005515
0.006404
0.007241
0.008019
0.008733
0.009380
0.009958
0.010465
0.010903
0.011273
0.011576
0.011815
0.011991
0.012108
0.012166
0.000523
0.001564
0.002591
0.003595
0.004568
0.005502
0.006389
0.007224
0.008000
0.008713
0.009358
0.009935
0.010442
0.010879
0.011248
0.011551
0.011789
0.011965
0.012081
0.012139
0.000521
0.001557
0.002580
0.003579
0.004548
0.005478
0.006362
0.007193
0.007966
0.008676
0.009320
0.009894
0.010399
0.010834
0.011202
0.011503
0.011741
0.011916
0.012032
0.012090
0.000517
0.001547
0.002563
0.003557
0.004520
0.005444
0.006322
0.007149
0.007917
0.008623
0.009262
0.009833
0.010335
0.010768
0.011133
0.011433
0.011669
0.011844
0.011959
0.012016
0.000513
0.001534
0.002542
0.003527
0.004481
0.005398
0.006269
0.007089
0.007851
0.008551
0.009185
0.009752
0.010249
0.010679
0.011041
0.011338
0.011573
0.011746
0.011860
0.011917
0.000508
0.001518
0.002514
0.003489
0.004433
0.005340
0.006202
0.007013
0.007767
0.008460
0.009087
0.009648
0.010140
0.010565
0.010923
0.011218
0.011449
0.011621
0.011734
0.011790
0.000501
0.001498
0.002481
0.003443
0.004375
0.005269
0.006120
0.006920
0.007665
0.008349
0.008968
0.009521
0.010007
0.010426
0.010779
0.011070
0.011299
0.011468
0.011580
0.011635
0.000493
0.001474
0.002442
0.003389
0.004306
0.005187
0.006024
0.006812
0.007544
0.008217
0.008826
0.009370
0.009848
0.010261
0.010609
0.010895
0.011120
0.011287
0.011397
0.011452
0.000484
0.001447
0.002398
0.003327
0.004227
0.005092
0.005914
0.006687
0.007406
0.008066
0.008664
0.009198
0.009667
0.010072
0.010414
0.010694
0.010915
0.011080
0.011188
0.011242
0.000474
0.001418
0.002348
0.003258
0.004140
0.004987
0.005791
0.006548
0.007252
0.007898
0.008483
0.009005
0.009464
0.009861
0.010195
0.010470
0.010687
0.010848
0.010954
0.011007
0.000463
0.001385
0.002295
0.003184
0.004046
0.004873
0.005659
0.006398
0.007085
0.007715
0.008287
0.008797
0.009245
0.009632
0.009959
0.010228
0.010440
0.010598
0.010702
0.010753
0.000452
0.001352
0.002239
0.003107
0.003947
0.004754
0.005520
0.006240
0.006909
0.007523
0.008080
0.008577
0.009014
0.009392
0.009711
0.009973
0.010181
0.010334
0.010436
0.010487
0.000440
0.001317
0.002182
0.003027
0.003846
0.004631
0.005377
0.006078
0.006729
0.007327
0.007869
0.008353
0.008778
0.009146
0.009458
0.009714
0.009916
0.010066
0.010165
0.010214
0.000429
0.001283
0.002125
0.002948
0.003746
0.004510
0.005236
0.005918
0.006552
0.007134
0.007661
0.008132
0.008546
0.008905
0.009208
0.009458
0.009655
0.009801
0.009898
0.009946
0.000418
0.001250
0.002071
0.002873
0.003650
0.004395
0.005102
0.005766
0.006383
0.006949
0.007463
0.007922
0.008326
0.008675
0.008971
0.009215
0.009407
0.009550
0.009644
0.009691
0.000408
0.001221
0.002022
0.002805
0.003563
0.004289
0.004979
0.005627
0.006229
0.006782
0.007283
0.007731
0.008126
0.008467
0.008756
0.008994
0.009182
0.009322
0.009414
0.009460
0.000400
0.001195
0.001979
0.002746
0.003487
0.004199
0.004874
0.005508
0.006097
0.006639
0.007129
0.007568
0.007955
0.008289
0.008572
0.008806
0.008990
0.009127
0.009217
0.009262
0.000393
0.001175
0.001946
0.002699
0.003428
0.004127
0.004790
0.005414
0.005993
0.006525
0.007007
0.007439
0.007819
0.008148
0.008427
0.008656
0.008838
0.008972
0.009061
0.009106
0.000388
0.001161
0.001922
0.002666
0.003387
0.004077
0.004733
0.005348
0.005921
0.006446
0.006923
0.007350
0.007725
0.008051
0.008326
0.008553
0.008732
0.008865
0.008954
0.008997
0.000386
0.001153
0.001910
0.002650
0.003366
0.004052
0.004703
0.005315
0.005884
0.006406
0.006880
0.007304
0.007677
0.008001
0.008275
0.008500
0.008679
0.008811
0.008899
0.008942


SCALARS Species_2 float 1 
LOOKUP_TABLE default 
0.000244
0.000725
0.001186
0.001616
0.002005
0.002344
0.002629
0.002857
0.003027
0.003142
0.003206
0.003227
0.003213
0.003172
0.003115
0.003050
0.002987
0.002932
0.002892
0.002871
0.000247
0.000734
0.001201
0.001636
0.002029
0.002373
0.002662
0.002893
0.003065
0.003182
0.003248
0.003269
0.003255
0.003214
0.003156
0.003091
0.003027
0.002972
0.002932
0.002911
0.000253
0.000752
0.001230
0.001676
0.002079
0.002431
0.002727
0.002964
0.003141
0.003261
0.003328
0.003351
0.003337
0.003295
0.003237
0.003170
0.003105
0.003049
0.003008
0.002987
0.000262
0.000778
0.001273