# vtk DataFile Version 2.0
generated by CFD-lab course output (written by Tobias Neckel) 
ASCII

DATASET STRUCTURED_GRID
DIMENSIONS  21 21 1 
POINTS 441 float

0.000000 0.000000 0
0.100000 0.000000 0
0.200000 0.000000 0
0.300000 0.000000 0
0.400000 0.000000 0
0.500000 0.000000 0
0.600000 0.000000 0
0.700000 0.000000 0
0.800000 0.000000 0
0.900000 0.000000 0
1.000000 0.000000 0
1.100000 0.000000 0
1.200000 0.000000 0
1.300000 0.000000 0
1.400000 0.000000 0
1.500000 0.000000 0
1.600000 0.000000 0
1.700000 0.000000 0
1.800000 0.000000 0
1.900000 0.000000 0
2.000000 0.000000 0
0.000000 0.100000 0
0.100000 0.100000 0
0.200000 0.100000 0
0.300000 0.100000 0
0.400000 0.100000 0
0.500000 0.100000 0
0.600000 0.100000 0
0.700000 0.100000 0
0.800000 0.100000 0
0.900000 0.100000 0
1.000000 0.100000 0
1.100000 0.100000 0
1.200000 0.100000 0
1.300000 0.100000 0
1.400000 0.100000 0
1.500000 0.100000 0
1.600000 0.100000 0
1.700000 0.100000 0
1.800000 0.100000 0
1.900000 0.100000 0
2.000000 0.100000 0
0.000000 0.200000 0
0.100000 0.200000 0
0.200000 0.200000 0
0.300000 0.200000 0
0.400000 0.200000 0
0.500000 0.200000 0
0.600000 0.200000 0
0.700000 0.200000 0
0.800000 0.200000 0
0.900000 0.200000 0
1.000000 0.200000 0
1.100000 0.200000 0
1.200000 0.200000 0
1.300000 0.200000 0
1.400000 0.200000 0
1.500000 0.200000 0
1.600000 0.200000 0
1.700000 0.200000 0
1.800000 0.200000 0
1.900000 0.200000 0
2.000000 0.200000 0
0.000000 0.300000 0
0.100000 0.300000 0
0.200000 0.300000 0
0.300000 0.300000 0
0.400000 0.300000 0
0.500000 0.300000 0
0.600000 0.300000 0
0.700000 0.300000 0
0.800000 0.300000 0
0.900000 0.300000 0
1.000000 0.300000 0
1.100000 0.300000 0
1.200000 0.300000 0
1.300000 0.300000 0
1.400000 0.300000 0
1.500000 0.300000 0
1.600000 0.300000 0
1.700000 0.300000 0
1.800000 0.300000 0
1.900000 0.300000 0
2.000000 0.300000 0
0.000000 0.400000 0
0.100000 0.400000 0
0.200000 0.400000 0
0.300000 0.400000 0
0.400000 0.400000 0
0.500000 0.400000 0
0.600000 0.400000 0
0.700000 0.400000 0
0.800000 0.400000 0
0.900000 0.400000 0
1.000000 0.400000 0
1.100000 0.400000 0
1.200000 0.400000 0
1.300000 0.400000 0
1.400000 0.400000 0
1.500000 0.400000 0
1.600000 0.400000 0
1.700000 0.400000 0
1.800000 0.400000 0
1.900000 0.400000 0
2.000000 0.400000 0
0.000000 0.500000 0
0.100000 0.500000 0
0.200000 0.500000 0
0.300000 0.500000 0
0.400000 0.500000 0
0.500000 0.500000 0
0.600000 0.500000 0
0.700000 0.500000 0
0.800000 0.500000 0
0.900000 0.500000 0
1.000000 0.500000 0
1.100000 0.500000 0
1.200000 0.500000 0
1.300000 0.500000 0
1.400000 0.500000 0
1.500000 0.500000 0
1.600000 0.500000 0
1.700000 0.500000 0
1.800000 0.500000 0
1.900000 0.500000 0
2.000000 0.500000 0
0.000000 0.600000 0
0.100000 0.600000 0
0.200000 0.600000 0
0.300000 0.600000 0
0.400000 0.600000 0
0.500000 0.600000 0
0.600000 0.600000 0
0.700000 0.600000 0
0.800000 0.600000 0
0.900000 0.600000 0
1.000000 0.600000 0
1.100000 0.600000 0
1.200000 0.600000 0
1.300000 0.600000 0
1.400000 0.600000 0
1.500000 0.600000 0
1.600000 0.600000 0
1.700000 0.600000 0
1.800000 0.600000 0
1.900000 0.600000 0
2.000000 0.600000 0
0.000000 0.700000 0
0.100000 0.700000 0
0.200000 0.700000 0
0.300000 0.700000 0
0.400000 0.700000 0
0.500000 0.700000 0
0.600000 0.700000 0
0.700000 0.700000 0
0.800000 0.700000 0
0.900000 0.700000 0
1.000000 0.700000 0
1.100000 0.700000 0
1.200000 0.700000 0
1.300000 0.700000 0
1.400000 0.700000 0
1.500000 0.700000 0
1.600000 0.700000 0
1.700000 0.700000 0
1.800000 0.700000 0
1.900000 0.700000 0
2.000000 0.700000 0
0.000000 0.800000 0
0.100000 0.800000 0
0.200000 0.800000 0
0.300000 0.800000 0
0.400000 0.800000 0
0.500000 0.800000 0
0.600000 0.800000 0
0.700000 0.800000 0
0.800000 0.800000 0
0.900000 0.800000 0
1.000000 0.800000 0
1.100000 0.800000 0
1.200000 0.800000 0
1.300000 0.800000 0
1.400000 0.800000 0
1.500000 0.800000 0
1.600000 0.800000 0
1.700000 0.800000 0
1.800000 0.800000 0
1.900000 0.800000 0
2.000000 0.800000 0
0.000000 0.900000 0
0.100000 0.900000 0
0.200000 0.900000 0
0.300000 0.900000 0
0.400000 0.900000 0
0.500000 0.900000 0
0.600000 0.900000 0
0.700000 0.900000 0
0.800000 0.900000 0
0.900000 0.900000 0
1.000000 0.900000 0
1.100000 0.900000 0
1.200000 0.900000 0
1.300000 0.900000 0
1.400000 0.900000 0
1.500000 0.900000 0
1.600000 0.900000 0
1.700000 0.900000 0
1.800000 0.900000 0
1.900000 0.900000 0
2.000000 0.900000 0
0.000000 1.000000 0
0.100000 1.000000 0
0.200000 1.000000 0
0.300000 1.000000 0
0.400000 1.000000 0
0.500000 1.000000 0
0.600000 1.000000 0
0.700000 1.000000 0
0.800000 1.000000 0
0.900000 1.000000 0
1.000000 1.000000 0
1.100000 1.000000 0
1.200000 1.000000 0
1.300000 1.000000 0
1.400000 1.000000 0
1.500000 1.000000 0
1.600000 1.000000 0
1.700000 1.000000 0
1.800000 1.000000 0
1.900000 1.000000 0
2.000000 1.000000 0
0.000000 1.100000 0
0.100000 1.100000 0
0.200000 1.100000 0
0.300000 1.100000 0
0.400000 1.100000 0
0.500000 1.100000 0
0.600000 1.100000 0
0.700000 1.100000 0
0.800000 1.100000 0
0.900000 1.100000 0
1.000000 1.100000 0
1.100000 1.100000 0
1.200000 1.100000 0
1.300000 1.100000 0
1.400000 1.100000 0
1.500000 1.100000 0
1.600000 1.100000 0
1.700000 1.100000 0
1.800000 1.100000 0
1.900000 1.100000 0
2.000000 1.100000 0
0.000000 1.200000 0
0.100000 1.200000 0
0.200000 1.200000 0
0.300000 1.200000 0
0.400000 1.200000 0
0.500000 1.200000 0
0.600000 1.200000 0
0.700000 1.200000 0
0.800000 1.200000 0
0.900000 1.200000 0
1.000000 1.200000 0
1.100000 1.200000 0
1.200000 1.200000 0
1.300000 1.200000 0
1.400000 1.200000 0
1.500000 1.200000 0
1.600000 1.200000 0
1.700000 1.200000 0
1.800000 1.200000 0
1.900000 1.200000 0
2.000000 1.200000 0
0.000000 1.300000 0
0.100000 1.300000 0
0.200000 1.300000 0
0.300000 1.300000 0
0.400000 1.300000 0
0.500000 1.300000 0
0.600000 1.300000 0
0.700000 1.300000 0
0.800000 1.300000 0
0.900000 1.300000 0
1.000000 1.300000 0
1.100000 1.300000 0
1.200000 1.300000 0
1.300000 1.300000 0
1.400000 1.300000 0
1.500000 1.300000 0
1.600000 1.300000 0
1.700000 1.300000 0
1.800000 1.300000 0
1.900000 1.300000 0
2.000000 1.300000 0
0.000000 1.400000 0
0.100000 1.400000 0
0.200000 1.400000 0
0.300000 1.400000 0
0.400000 1.400000 0
0.500000 1.400000 0
0.600000 1.400000 0
0.700000 1.400000 0
0.800000 1.400000 0
0.900000 1.400000 0
1.000000 1.400000 0
1.100000 1.400000 0
1.200000 1.400000 0
1.300000 1.400000 0
1.400000 1.400000 0
1.500000 1.400000 0
1.600000 1.400000 0
1.700000 1.400000 0
1.800000 1.400000 0
1.900000 1.400000 0
2.000000 1.400000 0
0.000000 1.500000 0
0.100000 1.500000 0
0.200000 1.500000 0
0.300000 1.500000 0
0.400000 1.500000 0
0.500000 1.500000 0
0.600000 1.500000 0
0.700000 1.500000 0
0.800000 1.500000 0
0.900000 1.500000 0
1.000000 1.500000 0
1.100000 1.500000 0
1.200000 1.500000 0
1.300000 1.500000 0
1.400000 1.500000 0
1.500000 1.500000 0
1.600000 1.500000 0
1.700000 1.500000 0
1.800000 1.500000 0
1.900000 1.500000 0
2.000000 1.500000 0
0.000000 1.600000 0
0.100000 1.600000 0
0.200000 1.600000 0
0.300000 1.600000 0
0.400000 1.600000 0
0.500000 1.600000 0
0.600000 1.600000 0
0.700000 1.600000 0
0.800000 1.600000 0
0.900000 1.600000 0
1.000000 1.600000 0
1.100000 1.600000 0
1.200000 1.600000 0
1.300000 1.600000 0
1.400000 1.600000 0
1.500000 1.600000 0
1.600000 1.600000 0
1.700000 1.600000 0
1.800000 1.600000 0
1.900000 1.600000 0
2.000000 1.600000 0
0.000000 1.700000 0
0.100000 1.700000 0
0.200000 1.700000 0
0.300000 1.700000 0
0.400000 1.700000 0
0.500000 1.700000 0
0.600000 1.700000 0
0.700000 1.700000 0
0.800000 1.700000 0
0.900000 1.700000 0
1.000000 1.700000 0
1.100000 1.700000 0
1.200000 1.700000 0
1.300000 1.700000 0
1.400000 1.700000 0
1.500000 1.700000 0
1.600000 1.700000 0
1.700000 1.700000 0
1.800000 1.700000 0
1.900000 1.700000 0
2.000000 1.700000 0
0.000000 1.800000 0
0.100000 1.800000 0
0.200000 1.800000 0
0.300000 1.800000 0
0.400000 1.800000 0
0.500000 1.800000 0
0.600000 1.800000 0
0.700000 1.800000 0
0.800000 1.800000 0
0.900000 1.800000 0
1.000000 1.800000 0
1.100000 1.800000 0
1.200000 1.800000 0
1.300000 1.800000 0
1.400000 1.800000 0
1.500000 1.800000 0
1.600000 1.800000 0
1.700000 1.800000 0
1.800000 1.800000 0
1.900000 1.800000 0
2.000000 1.800000 0
0.000000 1.900000 0
0.100000 1.900000 0
0.200000 1.900000 0
0.300000 1.900000 0
0.400000 1.900000 0
0.500000 1.900000 0
0.600000 1.900000 0
0.700000 1.900000 0
0.800000 1.900000 0
0.900000 1.900000 0
1.000000 1.900000 0
1.100000 1.900000 0
1.200000 1.900000 0
1.300000 1.900000 0
1.400000 1.900000 0
1.500000 1.900000 0
1.600000 1.900000 0
1.700000 1.900000 0
1.800000 1.900000 0
1.900000 1.900000 0
2.000000 1.900000 0
0.000000 2.000000 0
0.100000 2.000000 0
0.200000 2.000000 0
0.300000 2.000000 0
0.400000 2.000000 0
0.500000 2.000000 0
0.600000 2.000000 0
0.700000 2.000000 0
0.800000 2.000000 0
0.900000 2.000000 0
1.000000 2.000000 0
1.100000 2.000000 0
1.200000 2.000000 0
1.300000 2.000000 0
1.400000 2.000000 0
1.500000 2.000000 0
1.600000 2.000000 0
1.700000 2.000000 0
1.800000 2.000000 0
1.900000 2.000000 0
2.000000 2.000000 0
POINT_DATA 441 

VECTORS velocity float
0.000000 0.000000 0
-0.000005 0.000000 0
0.000004 0.000000 0
0.000008 0.000000 0
0.000005 0.000000 0
0.000000 0.000000 0
-0.000004 0.000000 0
-0.000005 0.000000 0
-0.000004 0.000000 0
-0.000001 0.000000 0
0.000001 0.000000 0
0.000002 0.000000 0
0.000002 0.000000 0
0.000001 0.000000 0
0.000000 0.000000 0
-0.000000 0.000000 0
-0.000000 0.000000 0
-0.000000 0.000000 0
-0.000000 0.000000 0
-0.000000 0.000000 0
-0.000000 0.000000 0
0.000000 0.000001 0
0.000019 -0.000018 0
0.000047 -0.000007 0
0.000067 -0.000003 0
0.000077 -0.000005 0
0.000075 -0.000005 0
0.000064 0.000000 0
0.000044 0.000011 0
0.000017 0.000023 0
-0.000016 0.000032 0
-0.000051 0.000036 0
-0.000085 0.000034 0
-0.000114 0.000028 0
-0.000137 0.000020 0
-0.000154 0.000012 0
-0.000163 0.000006 0
-0.000168 0.000002 0
-0.000169 -0.000000 0
-0.000168 -0.000001 0
-0.000167 -0.000001 0
-0.000167 -0.000000 0
0.000000 0.000008 0
0.000028 -0.000037 0
0.000049 -0.000039 0
0.000066 -0.000035 0
0.000078 -0.000023 0
0.000081 -0.000001 0
0.000073 0.000025 0
0.000053 0.000050 0
0.000021 0.000068 0
-0.000018 0.000076 0
-0.000060 0.000074 0
-0.000099 0.000065 0
-0.000132 0.000052 0
-0.000156 0.000037 0
-0.000172 0.000024 0
-0.000181 0.000013 0
-0.000185 0.000005 0
-0.000186 0.000001 0
-0.000185 -0.000001 0
-0.000184 -0.000001 0
-0.000184 -0.000001 0
0.000000 -0.000000 0
0.000024 -0.000070 0
0.000047 -0.000071 0
0.000070 -0.000052 0
0.000087 -0.000021 0
0.000094 0.000015 0
0.000086 0.000051 0
0.000062 0.000081 0
0.000025 0.000102 0
-0.000020 0.000112 0
-0.000066 0.000110 0
-0.000107 0.000097 0
-0.000140 0.000079 0
-0.000163 0.000057 0
-0.000177 0.000037 0
-0.000184 0.000020 0
-0.000186 0.000008 0
-0.000185 0.000000 0
-0.000183 -0.000002 0
-0.000182 -0.000002 0
-0.000181 -0.000001 0
0.000000 -0.000005 0
0.000024 -0.000101 0
0.000054 -0.000093 0
0.000083 -0.000063 0
0.000102 -0.000024 0
0.000109 0.000019 0
0.000099 0.000064 0
0.000073 0.000105 0
0.000031 0.000138 0
-0.000019 0.000155 0
-0.000070 0.000155 0
-0.000115 0.000137 0
-0.000150 0.000109 0
-0.000172 0.000077 0
-0.000183 0.000047 0
-0.000187 0.000023 0
-0.000185 0.000007 0
-0.000182 -0.000002 0
-0.000178 -0.000005 0
-0.000176 -0.000003 0
-0.000175 -0.000001 0
0.000000 -0.000001 0
0.000029 -0.000126 0
0.000064 -0.000118 0
0.000094 -0.000086 0
0.000115 -0.000042 0
0.000124 0.000013 0
0.000116 0.000076 0
0.000089 0.000138 0
0.000043 0.000187 0
-0.000015 0.000212 0
-0.000075 0.000209 0
-0.000126 0.000181 0
-0.000162 0.000139 0
-0.000182 0.000093 0
-0.000189 0.000052 0
-0.000188 0.000022 0
-0.000182 0.000002 0
-0.000175 -0.000008 0
-0.000169 -0.000009 0
-0.000166 -0.000005 0
-0.000166 -0.000002 0
0.000000 0.000002 0
0.000034 -0.000158 0
0.000069 -0.000155 0
0.000101 -0.000119 0
0.000126 -0.000064 0
0.000140 0.000010 0
0.000136 0.000096 0
0.000108 0.000181 0
0.000056 0.000247 0
-0.000011 0.000278 0
-0.000080 0.000269 0
-0.000137 0.000226 0
-0.000173 0.000165 0
-0.000190 0.000104 0
-0.000191 0.000052 0
-0.000185 0.000015 0
-0.000174 -0.000006 0
-0.000164 -0.000015 0
-0.000156 -0.000014 0
-0.000152 -0.000007 0
-0.000151 -0.000002 0
0.000000 -0.000000 0
0.000033 -0.000195 0
0.000068 -0.000194 0
0.000103 -0.000152 0
0.000133 -0.000084 0
0.000151 0.000007 0
0.000151 0.000115 0
0.000123 0.000224 0
0.000067 0.000310 0
-0.000008 0.000349 0
-0.000084 0.000333 0
-0.000143 0.000272 0
-0.000177 0.000190 0
-0.000188 0.000110 0
-0.000184 0.000047 0
-0.000172 0.000005 0
-0.000158 -0.000018 0
-0.000145 -0.000026 0
-0.000136 -0.000021 0
-0.000131 -0.000009 0
-0.000131 -0.000002 0
0.000000 -0.000002 0
0.000029 -0.000230 0
0.000063 -0.000230 0
0.000097 -0.000182 0
0.000127 -0.000107 0
0.000147 -0.000002 0
0.000149 0.000128 0
0.000125 0.000264 0
0.000070 0.000375 0
-0.000005 0.000425 0
-0.000080 0.000401 0
-0.000136 0.000318 0
-0.000166 0.000211 0
-0.000171 0.000112 0
-0.000162 0.000037 0
-0.000147 -0.000010 0
-0.000132 -0.000033 0
-0.000118 -0.000038 0
-0.000108 -0.000029 0
-0.000103 -0.000012 0
-0.000103 -0.000002 0
0.000000 -0.000001 0
0.000023 -0.000258 0
0.000050 -0.000260 0
0.000077 -0.000212 0
0.000101 -0.000132 0
0.000119 -0.000016 0
0.000124 0.000135 0
0.000106 0.000300 0
0.000062 0.000437 0
-0.000001 0.000499 0
-0.000064 0.000465 0
-0.000110 0.000358 0
-0.000131 0.000225 0
-0.000132 0.000108 0
-0.000121 0.000023 0
-0.000107 -0.000026 0
-0.000093 -0.000048 0
-0.000081 -0.000049 0
-0.000073 -0.000036 0
-0.000069 -0.000015 0
-0.000069 -0.000003 0
0.000000 0.000000 0
0.000014 -0.000278 0
0.000029 -0.000283 0
0.000043 -0.000236 0
0.000057 -0.000152 0
0.000069 -0.000027 0
0.000073 0.000140 0
0.000064 0.000326 0
0.000040 0.000483 0
0.000003 0.000553 0
-0.000033 0.000511 0
-0.000059 0.000385 0
-0.000070 0.000233 0
-0.000069 0.000102 0
-0.000061 0.000012 0
-0.000052 -0.000039 0
-0.000043 -0.000059 0
-0.000036 -0.000057 0
-0.000031 -0.000041 0
-0.000029 -0.000016 0
-0.000029 -0.000003 0
0.000000 -0.000000 0
0.000001 -0.000286 0
0.000002 -0.000293 0
0.000002 -0.000244 0
0.000002 -0.000159 0
0.000003 -0.000031 0
0.000004 0.000142 0
0.000005 0.000335 0
0.000006 0.000499 0
0.000007 0.000572 0
0.000008 0.000527 0
0.000008 0.000394 0
0.000009 0.000234 0
0.000010 0.000099 0
0.000011 0.000007 0
0.000012 -0.000044 0
0.000013 -0.000063 0
0.000014 -0.000061 0
0.000015 -0.000043 0
0.000015 -0.000017 0
0.000015 -0.000003 0
0.000000 -0.000001 0
-0.000011 -0.000280 0
-0.000025 -0.000285 0
-0.000040 -0.000236 0
-0.000053 -0.000152 0
-0.000063 -0.000027 0
-0.000066 0.000139 0
-0.000055 0.000324 0
-0.000028 0.000481 0
0.000010 0.000551 0
0.000048 0.000509 0
0.000076 0.000383 0
0.000088 0.000231 0
0.000089 0.000100 0
0.000084 0.000010 0
0.000077 -0.000041 0
0.000070 -0.000061 0
0.000065 -0.000059 0
0.000061 -0.000042 0
0.000060 -0.000017 0
0.000059 -0.000003 0
0.000000 -0.000000 0
-0.000021 -0.000261 0
-0.000047 -0.000263 0
-0.000074 -0.000216 0
-0.000098 -0.000135 0
-0.000115 -0.000019 0
-0.000118 0.000132 0
-0.000098 0.000297 0
-0.000052 0.000434 0
0.000013 0.000496 0
0.000079 0.000462 0
0.000126 0.000354 0
0.000150 0.000221 0
0.000153 0.000103 0
0.000145 0.000019 0
0.000133 -0.000030 0
0.000121 -0.000052 0
0.000112 -0.000052 0
0.000105 -0.000038 0
0.000102 -0.000015 0
0.000101 -0.000002 0
0.000000 0.000000 0
-0.000029 -0.000231 0
-0.000063 -0.000232 0
-0.000097 -0.000186 0
-0.000126 -0.000112 0
-0.000145 -0.000008 0
-0.000146 0.000121 0
-0.000119 0.000258 0
-0.000063 0.000370 0
0.000015 0.000421 0
0.000094 0.000396 0
0.000153 0.000312 0
0.000186 0.000204 0
0.000194 0.000104 0
0.000189 0.000030 0
0.000176 -0.000017 0
0.000163 -0.000039 0
0.000151 -0.000043 0
0.000143 -0.000032 0
0.000139 -0.000013 0
0.000139 -0.000002 0
0.000000 -0.000000 0
-0.000033 -0.000197 0
-0.000072 -0.000195 0
-0.000109 -0.000153 0
-0.000139 -0.000088 0
-0.000156 0.000001 0
-0.000152 0.000106 0
-0.000122 0.000214 0
-0.000062 0.000300 0
0.000016 0.000340 0
0.000097 0.000324 0
0.000160 0.000262 0
0.000199 0.000180 0
0.000215 0.000100 0
0.000215 0.000037 0
0.000206 -0.000005 0
0.000194 -0.000027 0
0.000183 -0.000032 0
0.000175 -0.000026 0
0.000170 -0.000011 0
0.000170 -0.000002 0
0.000000 -0.000000 0
-0.000036 -0.000159 0
-0.000077 -0.000156 0
-0.000113 -0.000120 0
-0.000141 -0.000065 0
-0.000155 0.000006 0
-0.000147 0.000087 0
-0.000115 0.000168 0
-0.000057 0.000232 0
0.000017 0.000262 0
0.000093 0.000252 0
0.000156 0.000209 0
0.000199 0.000150 0
0.000221 0.000089 0
0.000228 0.000039 0
0.000224 0.000004 0
0.000216 -0.000016 0
0.000207 -0.000023 0
0.000200 -0.000019 0
0.000195 -0.000008 0
0.000195 -0.000002 0
0.000000 -0.000000 0
-0.000037 -0.000120 0
-0.000079 -0.000117 0
-0.000115 -0.000088 0
-0.000141 -0.000047 0
-0.000151 0.000007 0
-0.000141 0.000066 0
-0.000107 0.000124 0
-0.000053 0.000168 0
0.000016 0.000190 0
0.000087 0.000184 0
0.000149 0.000156 0
0.000194 0.000115 0
0.000222 0.000072 0
0.000234 0.000034 0
0.000236 0.000007 0
0.000232 -0.000009 0
0.000225 -0.000016 0
0.000219 -0.000014 0
0.000215 -0.000006 0
0.000215 -0.000001 0
0.000000 0.000000 0
-0.000039 -0.000080 0
-0.000082 -0.000077 0
-0.000118 -0.000058 0
-0.000142 -0.000030 0
-0.000150 0.000005 0
-0.000138 0.000044 0
-0.000105 0.000080 0
-0.000052 0.000109 0
0.000014 0.000122 0
0.000082 0.000119 0
0.000143 0.000102 0
0.000190 0.000077 0
0.000221 0.000049 0
0.000238 0.000025 0
0.000244 0.000006 0
0.000242 -0.000005 0
0.000237 -0.000010 0
0.000231 -0.000009 0
0.000228 -0.000004 0
0.000227 -0.000001 0
0.000000 0.000000 0
-0.000038 -0.000038 0
-0.000080 -0.000037 0
-0.000115 -0.000028 0
-0.000138 -0.000014 0
-0.000145 0.000002 0
-0.000133 0.000020 0
-0.000102 0.000037 0
-0.000053 0.000050 0
0.000007 0.000057 0
0.000070 0.000055 0
0.000126 0.000048 0
0.000172 0.000036 0
0.000203 0.000023 0
0.000221 0.000012 0
0.000228 0.000003 0
0.000227 -0.000003 0
0.000222 -0.000005 0
0.000217 -0.000005 0
0.000213 -0.000002 0
0.000213 -0.000000 0
0.000000 0.000000 0
-0.000000 0.000000 0
-0.000000 0.000000 0
-0.000000 0.000000 0
-0.000000 0.000000 0
-0.000000 0.000000 0
-0.000000 0.000000 0
-0.000000 0.000000 0
-0.000000 0.000000 0
-0.000000 0.000000 0
-0.000000 0.000000 0
0.000000 0.000000 0
0.000000 0.000000 0
0.000000 0.000000 0
0.000000 0.000000 0
0.000000 0.000000 0
0.000000 0.000000 0
0.000000 0.000000 0
0.000000 0.000000 0
0.000000 0.000000 0
0.000000 0.000000 0

CELL_DATA 400 
SCALARS pressure float 1 
LOOKUP_TABLE default 
0.242629
0.242647
0.242630
0.242598
0.242577
0.242575
0.242590
0.242609
0.242624
0.242629
0.242626
0.242619
0.242612
0.242609
0.242608
0.242610
0.242612
0.242614
0.242615
0.242616
0.219627
0.219606
0.219594
0.219596
0.219609
0.219622
0.219628
0.219626
0.219619
0.219612
0.219607
0.219606
0.219607
0.219610
0.219612
0.219614
0.219615
0.219616
0.219616
0.219617
0.196596
0.196596
0.196613
0.196631
0.196638
0.196632
0.196618
0.196605
0.196599
0.196599
0.196604
0.196610
0.196614
0.196616
0.196616
0.196616
0.196616
0.196616
0.196616
0.196617
0.173597
0.173616
0.173631
0.173634
0.173624
0.173610
0.173600
0.173597
0.173601
0.173607
0.173613
0.173617
0.173617
0.173616
0.173615
0.173615
0.173615
0.173616
0.173616
0.173617
0.150616
0.150622
0.150620
0.150614
0.150608
0.150606
0.150607
0.150611
0.150614
0.150615
0.150615
0.150615
0.150614
0.150614
0.150614
0.150615
0.150615
0.150616
0.150617
0.150618
0.127620
0.127611
0.127608
0.127610
0.127615
0.127619
0.127620
0.127618
0.127615
0.127612
0.127611
0.127611
0.127612
0.127614
0.127615
0.127616
0.127617
0.127617
0.127618
0.127618
0.104613
0.104608
0.104612
0.104620
0.104624
0.104624
0.104619
0.104614
0.104610
0.104609
0.104610
0.104612
0.104615
0.104616
0.104617
0.104617
0.104618
0.104618
0.104618
0.104619
0.081614
0.081615
0.081619
0.081622
0.081621
0.081618
0.081615
0.081612
0.081611
0.081612
0.081614
0.081615
0.081617
0.081617
0.081618
0.081618
0.081618
0.081619
0.081619
0.081619
0.058621
0.058620
0.058618
0.058617
0.058617
0.058617
0.058617
0.058617
0.058617
0.058617
0.058617
0.058617
0.058617
0.058618
0.058618
0.058619
0.058619
0.058620
0.058620
0.058620
0.035623
0.035619
0.035616
0.035617
0.035619
0.035621
0.035622
0.035622
0.035620
0.035618
0.035618
0.035618
0.035618
0.035619
0.035620
0.035620
0.035621
0.035621
0.035621
0.035621
0.012622
0.012619
0.012619
0.012621
0.012623
0.012624
0.012624
0.012623
0.012621
0.012620
0.012620
0.012620
0.012621
0.012621
0.012622
0.012622
0.012622
0.012622
0.012622
0.012622
-0.010377
-0.010377
-0.010377
-0.010377
-0.010376
-0.010376
-0.010376
-0.010376
-0.010376
-0.010376
-0.010376
-0.010376
-0.010377
-0.010377
-0.010377
-0.010377
-0.010377
-0.010377
-0.010377
-0.010377
-0.033374
-0.033374
-0.033375
-0.033376
-0.033376
-0.033375
-0.033373
-0.033373
-0.033372
-0.033373
-0.033373
-0.033374
-0.033374
-0.033375
-0.033375
-0.033375
-0.033376
-0.033376
-0.033376
-0.033377
-0.056372
-0.056373
-0.056375
-0.056375
-0.056374
-0.056372
-0.056371
-0.056370
-0.056370
-0.056370
-0.056371
-0.056372
-0.056373
-0.056373
-0.056374
-0.056374
-0.056374
-0.056375
-0.056375
-0.056376
-0.079372
-0.079372
-0.079373
-0.079373
-0.079372
-0.079370
-0.079369
-0.079369
-0.079368
-0.079369
-0.079369
-0.079370
-0.079371
-0.079371
-0.079372
-0.079373
-0.079373
-0.079374
-0.079374
-0.079375
-0.102371
-0.102370
-0.102371
-0.102371
-0.102370
-0.102370
-0.102369
-0.102368
-0.102367
-0.102367
-0.102368
-0.102368
-0.102369
-0.102370
-0.102371
-0.102371
-0.102372
-0.102373
-0.102374
-0.102374
-0.125370
-0.125369
-0.125370
-0.125370
-0.125370
-0.125369
-0.125368
-0.125367
-0.125366
-0.125366
-0.125366
-0.125367
-0.125368
-0.125369
-0.125370
-0.125370
-0.125371
-0.125372
-0.125373
-0.125374
-0.148369
-0.148369
-0.148369
-0.148369
-0.148369
-0.148368
-0.148367
-0.148366
-0.148365
-0.148365
-0.148365
-0.148366
-0.148367
-0.148368
-0.148368
-0.148369
-0.148370
-0.148371
-0.148372
-0.148373
-0.171369
-0.171368
-0.171368
-0.171368
-0.171367
-0.171367
-0.171366
-0.171365
-0.171364
-0.171364
-0.171364
-0.171365
-0.171366
-0.171366
-0.171367
-0.171368
-0.171369
-0.171370
-0.171371
-0.171372
-0.194369
-0.194368
-0.194368
-0.194367
-0.194367
-0.194366
-0.194365
-0.194364
-0.194363
-0.194363
-0.194363
-0.194364
-0.194364
-0.194365
-0.194366
-0.194367
-0.194368
-0.194369
-0.194370
-0.194371

SCALARS temperature float 1 
LOOKUP_TABLE default 
0.000028
0.000219
0.000587
0.001104
0.001726
0.002400
0.003059
0.003640
0.004085
0.004359
0.004450
0.004375
0.004171
0.003882
0.003557
0.003235
0.002948
0.002719
0.002561
0.002480
0.000030
0.000234
0.000629
0.001184
0.001854
0.002581
0.003293
0.003919
0.004394
0.004679
0.004762
0.004664
0.004427
0.004102
0.003742
0.003390
0.003080
0.002833
0.002664
0.002578
0.000034
0.000267
0.000717
0.001354
0.002126
0.002967
0.003793
0.004514
0.005054
0.005360
0.005423
0.005271
0.004959
0.004553
0.004116
0.003699
0.003338
0.003054
0.002861
0.002764
0.000041
0.000320
0.000861
0.001631
0.002574
0.003610
0.004631
0.005519
0.006169
0.006507
0.006524
0.006266
0.005816
0.005266
0.004697
0.004170
0.003724
0.003381
0.003150
0.003035
0.000051
0.000396
0.001069
0.002040
0.003244
0.004583
0.005917
0.007077
0.007901
0.008280
0.008203
0.007755
0.007068
0.006281
0.005503
0.004809
0.004239
0.003809
0.003524
0.003384
0.000065
0.000497
0.001352
0.002601
0.004180
0.005972
0.007786
0.009369
0.010463
0.010888
0.010635
0.009859
0.008786
0.007630
0.006542
0.005611
0.004870
0.004325
0.003971
0.003798
0.000082
0.000624
0.001706
0.003319
0.005408
0.007838
0.010359
0.012586
0.014090
0.014562
0.013997
0.012683
0.011012
0.009313
0.007795
0.006548
0.005588
0.004902
0.004464
0.004252
0.000101
0.000766
0.002113
0.004161
0.006888
0.010160
0.013661
0.016815
0.018918
0.019432
0.018359
0.016227
0.013692
0.011259
0.009189
0.007557
0.006344
0.005498
0.004968
0.004714
0.000120
0.000909
0.002525
0.005035
0.008473
0.012739
0.017459
0.021821
0.024718
0.025262
0.023470
0.020231
0.016596
0.013280
0.010584
0.008538
0.007063
0.006059
0.005438
0.005143
0.000136
0.001028
0.002874
0.005789
0.009879
0.015112
0.021077
0.026731
0.030493
0.031058
0.028457
0.024013
0.019234
0.015051
0.011772
0.009358
0.007660
0.006522
0.005827
0.005498
0.000146
0.001099
0.003086
0.006249
0.010750
0.016619
0.023435
0.030005
0.034391
0.034975
0.031797
0.026500
0.020935
0.016181
0.012530
0.009890
0.008054
0.006834
0.006093
0.005743
0.000148
0.001110
0.003115
0.006305
0.010838
0.016745
0.023609
0.030242
0.034689
0.035291
0.032097
0.026769
0.021176
0.016395
0.012719
0.010056
0.008201
0.006967
0.006216
0.005860
0.000141
0.001062
0.002964
0.005957
0.010143
0.015489
0.021591
0.027411
0.031330
0.031954
0.029315
0.024795
0.019937
0.015680
0.012329
0.009851
0.008097
0.006916
0.006191
0.005846
0.000129
0.000966
0.002677
0.005319
0.008918
0.013369
0.018296
0.022888
0.025988
0.026622
0.024800
0.021473
0.017732
0.014307
0.011500
0.009350
0.007786
0.006711
0.006041
0.005719
0.000113
0.000848
0.002330
0.004567
0.007524
0.011051
0.014820
0.018240
0.020563
0.021188
0.020110
0.017897
0.015244
0.012671
0.010453
0.008680
0.007344
0.006401
0.005803
0.005512
0.000097
0.000730
0.001990
0.003852
0.006241
0.008999
0.011850
0.014378
0.016120
0.016721
0.016170
0.014780
0.012971
0.011101
0.009397
0.007971
0.006856
0.006047
0.005523
0.005265
0.000083
0.000629
0.001703
0.003261
0.005213
0.007407
0.009618
0.011550
0.012908
0.013480
0.013249
0.012388
0.011152
0.009787
0.008474
0.007326
0.006396
0.005703
0.005246
0.005018
0.000073
0.000552
0.001488
0.002827
0.004476
0.006295
0.008096
0.009660
0.010784
0.011328
0.011273
0.010723
0.009841
0.008804
0.007758
0.006808
0.006016
0.005412
0.005008
0.004804
0.000066
0.000502
0.001348
0.002549
0.004011
0.005606
0.007170
0.008527
0.009519
0.010041
0.010076
0.009691
0.009008
0.008161
0.007278
0.006452
0.005749
0.005204
0.004835
0.004648
0.000062
0.000477
0.001279
0.002412
0.003787
0.005278
0.006735
0.007999
0.008931
0.009443
0.009514
0.009200
0.008604
0.007844
0.007035
0.006269
0.005610
0.005095
0.004744
0.004565


SCALARS Species_1 float 1 
LOOKUP_TABLE default 
0.000549
0.001643
0.002721
0.003775
0.004795
0.005773
0.006701
0.007570
0.008375
0.009109
0.009769
0.010354
0.010862
0.011296
0.011657
0.011950
0.012177
0.012344
0.012453
0.012507
0.000548
0.001639
0.002716
0.003767
0.004786
0.005762
0.006688
0.007556
0.008359
0.009092
0.009751
0.010335
0.010843
0.011276
0.011637
0.011929
0.012156
0.012323
0.012432
0.012486
0.000546
0.001634
0.002706
0.003754
0.004769
0.005742
0.006665
0.007530
0.008330
0.009061
0.009718
0.010300
0.010806
0.011238
0.011598
0.011890
0.012116
0.012283
0.012391
0.012445
0.000543
0.001625
0.002692
0.003735
0.004744
0.005712
0.006630
0.007490
0.008287
0.009014
0.009668
0.010247
0.010751
0.011181
0.011539
0.011829
0.012055
0.012220
0.012329
0.012382
0.000539
0.001613
0.002672
0.003707
0.004709
0.005670
0.006581
0.007436
0.008226
0.008949
0.009598
0.010173
0.010673
0.011100
0.011456
0.011744
0.011968
0.012133
0.012240
0.012293
0.000534
0.001597
0.002646
0.003671
0.004663
0.005614
0.006517
0.007363
0.008146
0.008861
0.009504
0.010074
0.010569
0.010992
0.011344
0.011630
0.011852
0.012015
0.012122
0.012174
0.000527
0.001577
0.002613
0.003624
0.004604
0.005543
0.006434
0.007270
0.008043
0.008750
0.009385
0.009947
0.010436
0.010853
0.011201
0.011483
0.011703
0.011864
0.011970
0.012022
0.000519
0.001553
0.002572
0.003568
0.004532
0.005456
0.006333
0.007155
0.007917
0.008612
0.009237
0.009790
0.010272
0.010682
0.011025
0.011302
0.011519
0.011678
0.011782
0.011833
0.000509
0.001523
0.002523
0.003500
0.004446
0.005353
0.006213
0.007020
0.007766
0.008448
0.009061
0.009604
0.010076
0.010478
0.010814
0.011087
0.011300
0.011456
0.011558
0.011608
0.000498
0.001489
0.002467
0.003422
0.004347
0.005234
0.006075
0.006863
0.007593
0.008259
0.008858
0.009388
0.009850
0.010243
0.010572
0.010839
0.011047
0.011200
0.011300
0.011349
0.000485
0.001452
0.002405
0.003336
0.004238
0.005102
0.005921
0.006689
0.007400
0.008048
0.008632
0.009148
0.009598
0.009982
0.010302
0.010562
0.010766
0.010915
0.011012
0.011061
0.000472
0.001411
0.002338
0.003243
0.004119
0.004959
0.005755
0.006501
0.007191
0.007821
0.008388
0.008890
0.009326
0.009700
0.010012
0.010265
0.010463
0.010608
0.010703
0.010750
0.000458
0.001369
0.002268
0.003146
0.003996
0.004810
0.005582
0.006305
0.006974
0.007585
0.008134
0.008621
0.009044
0.009407
0.009709
0.009955
0.010147
0.010289
0.010381
0.010427
0.000444
0.001327
0.002198
0.003049
0.003872
0.004661
0.005408
0.006108
0.006756
0.007348
0.007880
0.008351
0.008762
0.009113
0.009407
0.009645
0.009832
0.009969
0.010059
0.010103
0.000430
0.001286
0.002130
0.002954
0.003752
0.004516
0.005240
0.005919
0.006546
0.007119
0.007635
0.008091
0.008490
0.008831
0.009116
0.009347
0.009528
0.009662
0.009749
0.009792
0.000417
0.001248
0.002067
0.002867
0.003642
0.004383
0.005086
0.005744
0.006353
0.006909
0.007410
0.007853
0.008240
0.008572
0.008849
0.009074
0.009250
0.009380
0.009465
0.009507
0.000406
0.001215
0.002013
0.002792
0.003546
0.004268
0.004952
0.005593
0.006186
0.006728
0.007215
0.007648
0.008025
0.008348
0.008618
0.008838
0.009010
0.009136
0.009219
0.009260
0.000398
0.001189
0.001970
0.002732
0.003470
0.004176
0.004846
0.005472
0.006053
0.006583
0.007060
0.007484
0.007853
0.008170
0.008434
0.008650
0.008818
0.008942
0.009023
0.009064
0.000392
0.001171
0.001940
0.002690
0.003417
0.004112
0.004771
0.005389
0.005960
0.006482
0.006953
0.007370
0.007734
0.008046
0.008307
0.008519
0.008685
0.008807
0.008888
0.008927
0.000388
0.001162
0.001924
0.002669
0.003389
0.004080
0.004733
0.005346
0.005913
0.006431
0.006898
0.007312
0.007673
0.007983
0.008242
0.008452
0.008617
0.008738
0.008818
0.008857


SCALARS Species_2 float 1 
LOOKUP_TABLE default 
0.000260
0.000771
0.001259
0.001710
0.002112
0.002456
0.002737
0.002951
0.003098
0.003183
0.003212
0.003192
0.003136
0.003052
0.002954
0.002853
0.002758
0.002678
0.002621
0.002592
0.000264
0.000783
0.001278
0.001736
0.002144
0.002494
0.002779
0.002996
0.003146
0.003233
0.003263
0.003243
0.003186
0.003102
0.003003
0.002900
0.002804
0.002724
0.002666
0.002636
0.000272
0.000806
0.001317
0.001788
0.002209
0.002569
0.002863
0.003087
0.003242
0.003331
0.003362
0.003343
0.003284
0.003198
0.003097
0.002991
0.002892
0.002810
0.002751
0.002720
0.000283
0.000841