# vtk DataFile Version 2.0
generated by CFD-lab course output (written by Tobias Neckel) 
ASCII

DATASET STRUCTURED_GRID
DIMENSIONS  21 21 1 
POINTS 441 float

0.000000 0.000000 0
0.100000 0.000000 0
0.200000 0.000000 0
0.300000 0.000000 0
0.400000 0.000000 0
0.500000 0.000000 0
0.600000 0.000000 0
0.700000 0.000000 0
0.800000 0.000000 0
0.900000 0.000000 0
1.000000 0.000000 0
1.100000 0.000000 0
1.200000 0.000000 0
1.300000 0.000000 0
1.400000 0.000000 0
1.500000 0.000000 0
1.600000 0.000000 0
1.700000 0.000000 0
1.800000 0.000000 0
1.900000 0.000000 0
2.000000 0.000000 0
0.000000 0.100000 0
0.100000 0.100000 0
0.200000 0.100000 0
0.300000 0.100000 0
0.400000 0.100000 0
0.500000 0.100000 0
0.600000 0.100000 0
0.700000 0.100000 0
0.800000 0.100000 0
0.900000 0.100000 0
1.000000 0.100000 0
1.100000 0.100000 0
1.200000 0.100000 0
1.300000 0.100000 0
1.400000 0.100000 0
1.500000 0.100000 0
1.600000 0.100000 0
1.700000 0.100000 0
1.800000 0.100000 0
1.900000 0.100000 0
2.000000 0.100000 0
0.000000 0.200000 0
0.100000 0.200000 0
0.200000 0.200000 0
0.300000 0.200000 0
0.400000 0.200000 0
0.500000 0.200000 0
0.600000 0.200000 0
0.700000 0.200000 0
0.800000 0.200000 0
0.900000 0.200000 0
1.000000 0.200000 0
1.100000 0.200000 0
1.200000 0.200000 0
1.300000 0.200000 0
1.400000 0.200000 0
1.500000 0.200000 0
1.600000 0.200000 0
1.700000 0.200000 0
1.800000 0.200000 0
1.900000 0.200000 0
2.000000 0.200000 0
0.000000 0.300000 0
0.100000 0.300000 0
0.200000 0.300000 0
0.300000 0.300000 0
0.400000 0.300000 0
0.500000 0.300000 0
0.600000 0.300000 0
0.700000 0.300000 0
0.800000 0.300000 0
0.900000 0.300000 0
1.000000 0.300000 0
1.100000 0.300000 0
1.200000 0.300000 0
1.300000 0.300000 0
1.400000 0.300000 0
1.500000 0.300000 0
1.600000 0.300000 0
1.700000 0.300000 0
1.800000 0.300000 0
1.900000 0.300000 0
2.000000 0.300000 0
0.000000 0.400000 0
0.100000 0.400000 0
0.200000 0.400000 0
0.300000 0.400000 0
0.400000 0.400000 0
0.500000 0.400000 0
0.600000 0.400000 0
0.700000 0.400000 0
0.800000 0.400000 0
0.900000 0.400000 0
1.000000 0.400000 0
1.100000 0.400000 0
1.200000 0.400000 0
1.300000 0.400000 0
1.400000 0.400000 0
1.500000 0.400000 0
1.600000 0.400000 0
1.700000 0.400000 0
1.800000 0.400000 0
1.900000 0.400000 0
2.000000 0.400000 0
0.000000 0.500000 0
0.100000 0.500000 0
0.200000 0.500000 0
0.300000 0.500000 0
0.400000 0.500000 0
0.500000 0.500000 0
0.600000 0.500000 0
0.700000 0.500000 0
0.800000 0.500000 0
0.900000 0.500000 0
1.000000 0.500000 0
1.100000 0.500000 0
1.200000 0.500000 0
1.300000 0.500000 0
1.400000 0.500000 0
1.500000 0.500000 0
1.600000 0.500000 0
1.700000 0.500000 0
1.800000 0.500000 0
1.900000 0.500000 0
2.000000 0.500000 0
0.000000 0.600000 0
0.100000 0.600000 0
0.200000 0.600000 0
0.300000 0.600000 0
0.400000 0.600000 0
0.500000 0.600000 0
0.600000 0.600000 0
0.700000 0.600000 0
0.800000 0.600000 0
0.900000 0.600000 0
1.000000 0.600000 0
1.100000 0.600000 0
1.200000 0.600000 0
1.300000 0.600000 0
1.400000 0.600000 0
1.500000 0.600000 0
1.600000 0.600000 0
1.700000 0.600000 0
1.800000 0.600000 0
1.900000 0.600000 0
2.000000 0.600000 0
0.000000 0.700000 0
0.100000 0.700000 0
0.200000 0.700000 0
0.300000 0.700000 0
0.400000 0.700000 0
0.500000 0.700000 0
0.600000 0.700000 0
0.700000 0.700000 0
0.800000 0.700000 0
0.900000 0.700000 0
1.000000 0.700000 0
1.100000 0.700000 0
1.200000 0.700000 0
1.300000 0.700000 0
1.400000 0.700000 0
1.500000 0.700000 0
1.600000 0.700000 0
1.700000 0.700000 0
1.800000 0.700000 0
1.900000 0.700000 0
2.000000 0.700000 0
0.000000 0.800000 0
0.100000 0.800000 0
0.200000 0.800000 0
0.300000 0.800000 0
0.400000 0.800000 0
0.500000 0.800000 0
0.600000 0.800000 0
0.700000 0.800000 0
0.800000 0.800000 0
0.900000 0.800000 0
1.000000 0.800000 0
1.100000 0.800000 0
1.200000 0.800000 0
1.300000 0.800000 0
1.400000 0.800000 0
1.500000 0.800000 0
1.600000 0.800000 0
1.700000 0.800000 0
1.800000 0.800000 0
1.900000 0.800000 0
2.000000 0.800000 0
0.000000 0.900000 0
0.100000 0.900000 0
0.200000 0.900000 0
0.300000 0.900000 0
0.400000 0.900000 0
0.500000 0.900000 0
0.600000 0.900000 0
0.700000 0.900000 0
0.800000 0.900000 0
0.900000 0.900000 0
1.000000 0.900000 0
1.100000 0.900000 0
1.200000 0.900000 0
1.300000 0.900000 0
1.400000 0.900000 0
1.500000 0.900000 0
1.600000 0.900000 0
1.700000 0.900000 0
1.800000 0.900000 0
1.900000 0.900000 0
2.000000 0.900000 0
0.000000 1.000000 0
0.100000 1.000000 0
0.200000 1.000000 0
0.300000 1.000000 0
0.400000 1.000000 0
0.500000 1.000000 0
0.600000 1.000000 0
0.700000 1.000000 0
0.800000 1.000000 0
0.900000 1.000000 0
1.000000 1.000000 0
1.100000 1.000000 0
1.200000 1.000000 0
1.300000 1.000000 0
1.400000 1.000000 0
1.500000 1.000000 0
1.600000 1.000000 0
1.700000 1.000000 0
1.800000 1.000000 0
1.900000 1.000000 0
2.000000 1.000000 0
0.000000 1.100000 0
0.100000 1.100000 0
0.200000 1.100000 0
0.300000 1.100000 0
0.400000 1.100000 0
0.500000 1.100000 0
0.600000 1.100000 0
0.700000 1.100000 0
0.800000 1.100000 0
0.900000 1.100000 0
1.000000 1.100000 0
1.100000 1.100000 0
1.200000 1.100000 0
1.300000 1.100000 0
1.400000 1.100000 0
1.500000 1.100000 0
1.600000 1.100000 0
1.700000 1.100000 0
1.800000 1.100000 0
1.900000 1.100000 0
2.000000 1.100000 0
0.000000 1.200000 0
0.100000 1.200000 0
0.200000 1.200000 0
0.300000 1.200000 0
0.400000 1.200000 0
0.500000 1.200000 0
0.600000 1.200000 0
0.700000 1.200000 0
0.800000 1.200000 0
0.900000 1.200000 0
1.000000 1.200000 0
1.100000 1.200000 0
1.200000 1.200000 0
1.300000 1.200000 0
1.400000 1.200000 0
1.500000 1.200000 0
1.600000 1.200000 0
1.700000 1.200000 0
1.800000 1.200000 0
1.900000 1.200000 0
2.000000 1.200000 0
0.000000 1.300000 0
0.100000 1.300000 0
0.200000 1.300000 0
0.300000 1.300000 0
0.400000 1.300000 0
0.500000 1.300000 0
0.600000 1.300000 0
0.700000 1.300000 0
0.800000 1.300000 0
0.900000 1.300000 0
1.000000 1.300000 0
1.100000 1.300000 0
1.200000 1.300000 0
1.300000 1.300000 0
1.400000 1.300000 0
1.500000 1.300000 0
1.600000 1.300000 0
1.700000 1.300000 0
1.800000 1.300000 0
1.900000 1.300000 0
2.000000 1.300000 0
0.000000 1.400000 0
0.100000 1.400000 0
0.200000 1.400000 0
0.300000 1.400000 0
0.400000 1.400000 0
0.500000 1.400000 0
0.600000 1.400000 0
0.700000 1.400000 0
0.800000 1.400000 0
0.900000 1.400000 0
1.000000 1.400000 0
1.100000 1.400000 0
1.200000 1.400000 0
1.300000 1.400000 0
1.400000 1.400000 0
1.500000 1.400000 0
1.600000 1.400000 0
1.700000 1.400000 0
1.800000 1.400000 0
1.900000 1.400000 0
2.000000 1.400000 0
0.000000 1.500000 0
0.100000 1.500000 0
0.200000 1.500000 0
0.300000 1.500000 0
0.400000 1.500000 0
0.500000 1.500000 0
0.600000 1.500000 0
0.700000 1.500000 0
0.800000 1.500000 0
0.900000 1.500000 0
1.000000 1.500000 0
1.100000 1.500000 0
1.200000 1.500000 0
1.300000 1.500000 0
1.400000 1.500000 0
1.500000 1.500000 0
1.600000 1.500000 0
1.700000 1.500000 0
1.800000 1.500000 0
1.900000 1.500000 0
2.000000 1.500000 0
0.000000 1.600000 0
0.100000 1.600000 0
0.200000 1.600000 0
0.300000 1.600000 0
0.400000 1.600000 0
0.500000 1.600000 0
0.600000 1.600000 0
0.700000 1.600000 0
0.800000 1.600000 0
0.900000 1.600000 0
1.000000 1.600000 0
1.100000 1.600000 0
1.200000 1.600000 0
1.300000 1.600000 0
1.400000 1.600000 0
1.500000 1.600000 0
1.600000 1.600000 0
1.700000 1.600000 0
1.800000 1.600000 0
1.900000 1.600000 0
2.000000 1.600000 0
0.000000 1.700000 0
0.100000 1.700000 0
0.200000 1.700000 0
0.300000 1.700000 0
0.400000 1.700000 0
0.500000 1.700000 0
0.600000 1.700000 0
0.700000 1.700000 0
0.800000 1.700000 0
0.900000 1.700000 0
1.000000 1.700000 0
1.100000 1.700000 0
1.200000 1.700000 0
1.300000 1.700000 0
1.400000 1.700000 0
1.500000 1.700000 0
1.600000 1.700000 0
1.700000 1.700000 0
1.800000 1.700000 0
1.900000 1.700000 0
2.000000 1.700000 0
0.000000 1.800000 0
0.100000 1.800000 0
0.200000 1.800000 0
0.300000 1.800000 0
0.400000 1.800000 0
0.500000 1.800000 0
0.600000 1.800000 0
0.700000 1.800000 0
0.800000 1.800000 0
0.900000 1.800000 0
1.000000 1.800000 0
1.100000 1.800000 0
1.200000 1.800000 0
1.300000 1.800000 0
1.400000 1.800000 0
1.500000 1.800000 0
1.600000 1.800000 0
1.700000 1.800000 0
1.800000 1.800000 0
1.900000 1.800000 0
2.000000 1.800000 0
0.000000 1.900000 0
0.100000 1.900000 0
0.200000 1.900000 0
0.300000 1.900000 0
0.400000 1.900000 0
0.500000 1.900000 0
0.600000 1.900000 0
0.700000 1.900000 0
0.800000 1.900000 0
0.900000 1.900000 0
1.000000 1.900000 0
1.100000 1.900000 0
1.200000 1.900000 0
1.300000 1.900000 0
1.400000 1.900000 0
1.500000 1.900000 0
1.600000 1.900000 0
1.700000 1.900000 0
1.800000 1.900000 0
1.900000 1.900000 0
2.000000 1.900000 0
0.000000 2.000000 0
0.100000 2.000000 0
0.200000 2.000000 0
0.300000 2.000000 0
0.400000 2.000000 0
0.500000 2.000000 0
0.600000 2.000000 0
0.700000 2.000000 0
0.800000 2.000000 0
0.900000 2.000000 0
1.000000 2.000000 0
1.100000 2.000000 0
1.200000 2.000000 0
1.300000 2.000000 0
1.400000 2.000000 0
1.500000 2.000000 0
1.600000 2.000000 0
1.700000 2.000000 0
1.800000 2.000000 0
1.900000 2.000000 0
2.000000 2.000000 0
POINT_DATA 441 

VECTORS velocity float
0.000000 0.000000 0
0.000013 0.000000 0
0.000004 0.000000 0
-0.000006 0.000000 0
-0.000010 0.000000 0
-0.000007 0.000000 0
-0.000001 0.000000 0
0.000004 0.000000 0
0.000006 0.000000 0
0.000004 0.000000 0
0.000001 0.000000 0
-0.000001 0.000000 0
-0.000002 0.000000 0
-0.000002 0.000000 0
-0.000001 0.000000 0
-0.000000 0.000000 0
0.000000 0.000000 0
0.000000 0.000000 0
0.000000 0.000000 0
-0.000000 0.000000 0
-0.000000 0.000000 0
0.000000 0.000011 0
0.000007 0.000003 0
0.000003 -0.000011 0
0.000001 -0.000016 0
0.000001 -0.000010 0
0.000003 0.000002 0
0.000005 0.000011 0
0.000005 0.000015 0
0.000001 0.000012 0
-0.000004 0.000007 0
-0.000009 0.000002 0
-0.000013 -0.000001 0
-0.000016 -0.000002 0
-0.000018 -0.000001 0
-0.000019 0.000000 0
-0.000019 0.000001 0
-0.000019 0.000001 0
-0.000019 0.000000 0
-0.000019 0.000000 0
-0.000019 0.000000 0
-0.000019 -0.000000 0
0.000000 -0.000006 0
-0.000003 -0.000011 0
0.000001 -0.000010 0
0.000007 -0.000001 0
0.000010 0.000008 0
0.000010 0.000012 0
0.000007 0.000011 0
0.000002 0.000007 0
-0.000002 0.000004 0
-0.000007 0.000003 0
-0.000011 0.000003 0
-0.000014 0.000004 0
-0.000016 0.000004 0
-0.000018 0.000004 0
-0.000020 0.000003 0
-0.000020 0.000002 0
-0.000021 0.000001 0
-0.000020 -0.000000 0
-0.000020 -0.000000 0
-0.000020 -0.000000 0
-0.000019 -0.000000 0
0.000000 -0.000005 0
-0.000001 -0.000007 0
0.000007 -0.000000 0
0.000012 0.000004 0
0.000012 0.000003 0
0.000009 0.000001 0
0.000005 0.000001 0
0.000002 0.000003 0
-0.000002 0.000007 0
-0.000005 0.000011 0
-0.000010 0.000013 0
-0.000014 0.000012 0
-0.000017 0.000009 0
-0.000020 0.000006 0
-0.000021 0.000003 0
-0.000022 0.000001 0
-0.000021 -0.000000 0
-0.000021 -0.000001 0
-0.000020 -0.000001 0
-0.000020 -0.000001 0
-0.000019 -0.000001 0
0.000000 0.000004 0
0.000004 -0.000004 0
0.000009 -0.000004 0
0.000011 -0.000007 0
0.000011 -0.000007 0
0.000010 -0.000003 0
0.000009 0.000004 0
0.000007 0.000012 0
0.000002 0.000019 0
-0.000004 0.000021 0
-0.000010 0.000020 0
-0.000016 0.000016 0
-0.000021 0.000011 0
-0.000023 0.000006 0
-0.000023 0.000002 0
-0.000023 0.000000 0
-0.000022 -0.000001 0
-0.000021 -0.000001 0
-0.000020 -0.000001 0
-0.000019 -0.000001 0
-0.000019 -0.000001 0
0.000000 0.000003 0
0.000004 -0.000011 0
0.000007 -0.000013 0
0.000011 -0.000012 0
0.000014 -0.000007 0
0.000017 0.000002 0
0.000016 0.000012 0
0.000012 0.000020 0
0.000005 0.000026 0
-0.000004 0.000027 0
-0.000013 0.000025 0
-0.000020 0.000019 0
-0.000024 0.000013 0
-0.000026 0.000007 0
-0.000025 0.000002 0
-0.000024 -0.000001 0
-0.000022 -0.000002 0
-0.000020 -0.000002 0
-0.000019 -0.000002 0
-0.000018 -0.000001 0
-0.000018 -0.000001 0
0.000000 -0.000002 0
0.000002 -0.000018 0
0.000007 -0.000017 0
0.000014 -0.000012 0
0.000019 -0.000005 0
0.000022 0.000003 0
0.000021 0.000013 0
0.000016 0.000023 0
0.000007 0.000032 0
-0.000004 0.000035 0
-0.000015 0.000033 0
-0.000024 0.000025 0
-0.000028 0.000016 0
-0.000028 0.000007 0
-0.000027 0.000001 0
-0.000024 -0.000003 0
-0.000022 -0.000004 0
-0.000020 -0.000004 0
-0.000018 -0.000003 0
-0.000017 -0.000002 0
-0.000017 -0.000001 0
0.000000 -0.000001 0
0.000003 -0.000021 0
0.000009 -0.000019 0
0.000016 -0.000015 0
0.000021 -0.000010 0
0.000025 -0.000001 0
0.000025 0.000012 0
0.000020 0.000028 0
0.000011 0.000042 0
-0.000003 0.000049 0
-0.000017 0.000045 0
-0.000026 0.000033 0
-0.000030 0.000019 0
-0.000030 0.000007 0
-0.000027 -0.000002 0
-0.000024 -0.000006 0
-0.000020 -0.000007 0
-0.000018 -0.000006 0
-0.000016 -0.000005 0
-0.000015 -0.000002 0
-0.000015 -0.000001 0
0.000000 0.000001 0
0.000004 -0.000025 0
0.000009 -0.000025 0
0.000015 -0.000023 0
0.000020 -0.000017 0
0.000025 -0.000005 0
0.000027 0.000013 0
0.000023 0.000036 0
0.000013 0.000056 0
-0.000002 0.000065 0
-0.000017 0.000058 0
-0.000027 0.000040 0
-0.000031 0.000020 0
-0.000029 0.000004 0
-0.000025 -0.000006 0
-0.000021 -0.000010 0
-0.000018 -0.000010 0
-0.000015 -0.000009 0
-0.000013 -0.000006 0
-0.000012 -0.000003 0
-0.000012 -0.000001 0
0.000000 0.000001 0
0.000003 -0.000030 0
0.000007 -0.000031 0
0.000011 -0.000029 0
0.000017 -0.000022 0
0.000021 -0.000008 0
0.000024 0.000015 0
0.000022 0.000044 0
0.000013 0.000069 0
-0.000001 0.000080 0
-0.000015 0.000070 0
-0.000023 0.000047 0
-0.000026 0.000020 0
-0.000024 0.000001 0
-0.000020 -0.000010 0
-0.000016 -0.000014 0
-0.000013 -0.000013 0
-0.000010 -0.000011 0
-0.000009 -0.000007 0
-0.000008 -0.000003 0
-0.000008 -0.000002 0
0.000000 -0.000001 0
0.000001 -0.000034 0
0.000003 -0.000034 0
0.000006 -0.000032 0
0.000010 -0.000025 0
0.000013 -0.000010 0
0.000014 0.000015 0
0.000013 0.000048 0
0.000008 0.000078 0
-0.000000 0.000091 0
-0.000008 0.000080 0
-0.000013 0.000051 0
-0.000014 0.000020 0
-0.000013 -0.000002 0
-0.000010 -0.000013 0
-0.000008 -0.000017 0
-0.000006 -0.000016 0
-0.000005 -0.000013 0
-0.000004 -0.000008 0
-0.000003 -0.000004 0
-0.000003 -0.000002 0
0.000000 -0.000001 0
-0.000000 -0.000035 0
-0.000001 -0.000035 0
-0.000000 -0.000033 0
-0.000000 -0.000026 0
0.000000 -0.000012 0
0.000000 0.000014 0
-0.000000 0.000049 0
0.000000 0.000081 0
0.000001 0.000095 0
0.000001 0.000083 0
0.000002 0.000053 0
0.000002 0.000020 0
0.000002 -0.000003 0
0.000002 -0.000015 0
0.000002 -0.000018 0
0.000002 -0.000017 0
0.000002 -0.000013 0
0.000002 -0.000009 0
0.000002 -0.000004 0
0.000002 -0.000002 0
0.000000 -0.000000 0
-0.000002 -0.000033 0
-0.000004 -0.000034 0
-0.000007 -0.000031 0
-0.000010 -0.000025 0
-0.000013 -0.000011 0
-0.000014 0.000014 0
-0.000013 0.000047 0
-0.000007 0.000077 0
0.000002 0.000090 0
0.000011 0.000079 0
0.000016 0.000051 0
0.000018 0.000020 0
0.000016 -0.000002 0
0.000014 -0.000013 0
0.000012 -0.000017 0
0.000010 -0.000016 0
0.000008 -0.000013 0
0.000008 -0.000008 0
0.000007 -0.000004 0
0.000007 -0.000002 0
0.000000 -0.000000 0
-0.000003 -0.000030 0
-0.000008 -0.000030 0
-0.000012 -0.000028 0
-0.000017 -0.000021 0
-0.000021 -0.000008 0
-0.000023 0.000014 0
-0.000020 0.000042 0
-0.000011 0.000067 0
0.000003 0.000078 0
0.000017 0.000069 0
0.000026 0.000046 0
0.000028 0.000020 0
0.000027 0.000001 0
0.000023 -0.000010 0
0.000020 -0.000014 0
0.000016 -0.000014 0
0.000014 -0.000011 0
0.000013 -0.000007 0
0.000012 -0.000003 0
0.000012 -0.000001 0
0.000000 -0.000000 0
-0.000004 -0.000026 0
-0.000010 -0.000026 0
-0.000015 -0.000022 0
-0.000020 -0.000016 0
-0.000025 -0.000004 0
-0.000026 0.000014 0
-0.000022 0.000035 0
-0.000012 0.000054 0
0.000003 0.000062 0
0.000019 0.000056 0
0.000029 0.000039 0
0.000033 0.000019 0
0.000032 0.000004 0
0.000029 -0.000006 0
0.000025 -0.000010 0
0.000021 -0.000010 0
0.000019 -0.000009 0
0.000017 -0.000006 0
0.000016 -0.000003 0
0.000016 -0.000001 0
0.000000 -0.000000 0
-0.000005 -0.000021 0
-0.000010 -0.000020 0
-0.000015 -0.000017 0
-0.000020 -0.000011 0
-0.000024 -0.000001 0
-0.000025 0.000012 0
-0.000020 0.000028 0
-0.000010 0.000041 0
0.000004 0.000047 0
0.000018 0.000042 0
0.000028 0.000031 0
0.000033 0.000017 0
0.000033 0.000005 0
0.000031 -0.000002 0
0.000028 -0.000006 0
0.000024 -0.000007 0
0.000022 -0.000007 0
0.000020 -0.000005 0
0.000019 -0.000002 0
0.000019 -0.000001 0
0.000000 -0.000000 0
-0.000004 -0.000016 0
-0.000009 -0.000015 0
-0.000014 -0.000012 0
-0.000019 -0.000007 0
-0.000021 0.000000 0
-0.000021 0.000010 0
-0.000016 0.000021 0
-0.000007 0.000030 0
0.000005 0.000034 0
0.000016 0.000031 0
0.000026 0.000024 0
0.000031 0.000014 0
0.000032 0.000006 0
0.000031 -0.000000 0
0.000029 -0.000004 0
0.000026 -0.000005 0
0.000024 -0.000005 0
0.000022 -0.000003 0
0.000022 -0.000002 0
0.000021 -0.000001 0
0.000000 -0.000000 0
-0.000004 -0.000011 0
-0.000009 -0.000010 0
-0.000013 -0.000008 0
-0.000016 -0.000004 0
-0.000018 0.000001 0
-0.000017 0.000008 0
-0.000012 0.000015 0
-0.000005 0.000020 0
0.000005 0.000023 0
0.000015 0.000021 0
0.000023 0.000017 0
0.000028 0.000011 0
0.000030 0.000005 0
0.000030 0.000001 0
0.000028 -0.000002 0
0.000027 -0.000003 0
0.000025 -0.000003 0
0.000024 -0.000002 0
0.000023 -0.000001 0
0.000023 -0.000001 0
0.000000 -0.000000 0
-0.000004 -0.000007 0
-0.000008 -0.000007 0
-0.000011 -0.000005 0
-0.000014 -0.000002 0
-0.000015 0.000001 0
-0.000013 0.000005 0
-0.000009 0.000009 0
-0.000003 0.000013 0
0.000005 0.000014 0
0.000013 0.000013 0
0.000020 0.000011 0
0.000025 0.000007 0
0.000028 0.000004 0
0.000028 0.000001 0
0.000028 -0.000001 0
0.000027 -0.000002 0
0.000026 -0.000002 0
0.000025 -0.000001 0
0.000024 -0.000001 0
0.000024 -0.000000 0
0.000000 -0.000000 0
-0.000003 -0.000003 0
-0.000007 -0.000003 0
-0.000010 -0.000002 0
-0.000012 -0.000001 0
-0.000013 0.000001 0
-0.000011 0.000003 0
-0.000007 0.000004 0
-0.000002 0.000006 0
0.000005 0.000007 0
0.000012 0.000006 0
0.000019 0.000005 0
0.000023 0.000004 0
0.000026 0.000002 0
0.000027 0.000001 0
0.000027 -0.000000 0
0.000026 -0.000001 0
0.000025 -0.000001 0
0.000024 -0.000001 0
0.000024 -0.000000 0
0.000024 -0.000000 0
0.000000 0.000000 0
0.000000 0.000000 0
0.000000 0.000000 0
-0.000000 0.000000 0
-0.000000 0.000000 0
-0.000000 0.000000 0
-0.000000 0.000000 0
-0.000000 0.000000 0
0.000000 0.000000 0
0.000000 0.000000 0
0.000000 0.000000 0
0.000000 0.000000 0
0.000000 0.000000 0
0.000000 0.000000 0
0.000000 0.000000 0
0.000000 0.000000 0
0.000000 0.000000 0
0.000000 0.000000 0
0.000000 0.000000 0
0.000000 0.000000 0
0.000000 0.000000 0

CELL_DATA 400 
SCALARS pressure float 1 
LOOKUP_TABLE default 
0.242640
0.242587
0.242571
0.242594
0.242632
0.242659
0.242662
0.242646
0.242624
0.242607
0.242601
0.242604
0.242612
0.242618
0.242622
0.242624
0.242624
0.242623
0.242623
0.242623
0.219596
0.219611
0.219634
0.219647
0.219641
0.219625
0.219609
0.219601
0.219603
0.219610
0.219618
0.219623
0.219625
0.219624
0.219622
0.219621
0.219621
0.219621
0.219622
0.219622
0.196620
0.196646
0.196643
0.196619
0.196597
0.196588
0.196596
0.196611
0.196625
0.196632
0.196631
0.196627
0.196622
0.196619
0.196618
0.196619
0.196620
0.196621
0.196622
0.196622
0.173639
0.173634
0.173613
0.173597
0.173595
0.173606
0.173620
0.173631
0.173633
0.173629
0.173623
0.173618
0.173616
0.173616
0.173618
0.173620
0.173621
0.173622
0.173622
0.173622
0.150623
0.150615
0.150612
0.150615
0.150621
0.150625
0.150625
0.150623
0.150620
0.150617
0.150617
0.150617
0.150618
0.150619
0.150620
0.150621
0.150622
0.150622
0.150622
0.150622
0.127611
0.127621
0.127629
0.127630
0.127625
0.127617
0.127612
0.127611
0.127613
0.127617
0.127620
0.127621
0.127621
0.127621
0.127621
0.127621
0.127621
0.127621
0.127622
0.127622
0.104618
0.104629
0.104630
0.104624
0.104615
0.104609
0.104609
0.104613
0.104618
0.104621
0.104623
0.104622
0.104621
0.104620
0.104620
0.104620
0.104621
0.104621
0.104622
0.104622
0.081623
0.081624
0.081622
0.081618
0.081616
0.081615
0.081617
0.081619
0.081620
0.081621
0.081621
0.081620
0.081620
0.081620
0.081620
0.081621
0.081621
0.081622
0.081622
0.081622
0.058619
0.058619
0.058621
0.058623
0.058623
0.058622
0.058620
0.058619
0.058618
0.058618
0.058619
0.058620
0.058621
0.058621
0.058621
0.058622
0.058622
0.058622
0.058622
0.058622
0.035617
0.035621
0.035625
0.035627
0.035625
0.035622
0.035619
0.035617
0.035618
0.035619
0.035620
0.035622
0.035622
0.035622
0.035622
0.035622
0.035622
0.035622
0.035622
0.035622
0.012620
0.012623
0.012626
0.012626
0.012624
0.012622
0.012620
0.012619
0.012620
0.012621
0.012623
0.012623
0.012623
0.012623
0.012623
0.012622
0.012622
0.012622
0.012622
0.012622
-0.010377
-0.010377
-0.010376
-0.010376
-0.010376
-0.010376
-0.010377
-0.010377
-0.010377
-0.010377
-0.010376
-0.010376
-0.010376
-0.010377
-0.010377
-0.010377
-0.010377
-0.010377
-0.010377
-0.010377
-0.033377
-0.033378
-0.033377
-0.033375
-0.033374
-0.033374
-0.033374
-0.033375
-0.033375
-0.033376
-0.033375
-0.033375
-0.033376
-0.033376
-0.033376
-0.033376
-0.033377
-0.033377
-0.033377
-0.033377
-0.056377
-0.056377
-0.056376
-0.056374
-0.056373
-0.056373
-0.056373
-0.056374
-0.056375
-0.056375
-0.056375
-0.056374
-0.056375
-0.056375
-0.056375
-0.056376
-0.056376
-0.056377
-0.056377
-0.056377
-0.079376
-0.079376
-0.079375
-0.079374
-0.079373
-0.079373
-0.079373
-0.079373
-0.079374
-0.079374
-0.079374
-0.079374
-0.079374
-0.079375
-0.079375
-0.079376
-0.079376
-0.079377
-0.079377
-0.079377
-0.102374
-0.102375
-0.102375
-0.102374
-0.102373
-0.102373
-0.102372
-0.102372
-0.102373
-0.102373
-0.102373
-0.102374
-0.102374
-0.102374
-0.102375
-0.102375
-0.102376
-0.102376
-0.102377
-0.102377
-0.125374
-0.125375
-0.125375
-0.125374
-0.125373
-0.125372
-0.125372
-0.125372
-0.125372
-0.125373
-0.125373
-0.125374
-0.125374
-0.125374
-0.125375
-0.125375
-0.125376
-0.125376
-0.125377
-0.125377
-0.148374
-0.148375
-0.148375
-0.148374
-0.148373
-0.148372
-0.148372
-0.148372
-0.148372
-0.148373
-0.148373
-0.148373
-0.148374
-0.148374
-0.148375
-0.148375
-0.148376
-0.148376
-0.148377
-0.148377
-0.171374
-0.171374
-0.171374
-0.171374
-0.171373
-0.171373
-0.171372
-0.171372
-0.171372
-0.171373
-0.171373
-0.171373
-0.171374
-0.171374
-0.171375
-0.171375
-0.171376
-0.171376
-0.171377
-0.171377
-0.194373
-0.194374
-0.194374
-0.194374
-0.194373
-0.194373
-0.194372
-0.194372
-0.194372
-0.194372
-0.194373
-0.194373
-0.194374
-0.194374
-0.194375
-0.194375
-0.194376
-0.194376
-0.194377
-0.194377

SCALARS temperature float 1 
LOOKUP_TABLE default 
0.000001
0.000007
0.000022
0.000044
0.000075
0.000113
0.000151
0.000185
0.000205
0.000208
0.000193
0.000164
0.000129
0.000094
0.000064
0.000041
0.000025
0.000016
0.000010
0.000008
0.000001
0.000010
0.000030
0.000062
0.000105
0.000158
0.000213
0.000260
0.000289
0.000292
0.000271
0.000230
0.000180
0.000130
0.000088
0.000056
0.000034
0.000021
0.000013
0.000010
0.000002
0.000017
0.000050
0.000104
0.000179
0.000271
0.000368
0.000450
0.000501
0.000506
0.000465
0.000392
0.000303
0.000217
0.000145
0.000091
0.000055
0.000033
0.000021
0.000016
0.000003
0.000031
0.000090
0.000188
0.000328
0.000501
0.000685
0.000845
0.000941
0.000948
0.000867
0.000722
0.000551
0.000389
0.000255
0.000158
0.000094
0.000056
0.000035
0.000026
0.000006
0.000054
0.000161
0.000340
0.000600
0.000928
0.001284
0.001596
0.001784
0.001794
0.001628
0.001339
0.001006
0.000696
0.000449
0.000273
0.000160
0.000094
0.000058
0.000044
0.000010
0.000092
0.000276
0.000590
0.001054
0.001657
0.002326
0.002924
0.003286
0.003299
0.002965
0.002402
0.001771
0.001201
0.000759
0.000454
0.000261
0.000151
0.000093
0.000069
0.000016
0.000147
0.000443
0.000959
0.001744
0.002793
0.003992
0.005091
0.005764
0.005776
0.005136
0.004086
0.002947
0.001954
0.001209
0.000708
0.000401
0.000228
0.000139
0.000102
0.000024
0.000216
0.000658
0.001446
0.002677
0.004377
0.006390
0.008292
0.009478
0.009483
0.008327
0.006491
0.004569
0.002956
0.001787
0.001026
0.000572
0.000320
0.000193
0.000141
0.000032
0.000292
0.000896
0.001994
0.003759
0.006279
0.009372
0.012396
0.014320
0.014311
0.012402
0.009462
0.006496
0.004102
0.002427
0.001369
0.000752
0.000416
0.000249
0.000181
0.000039
0.000358
0.001106
0.002488
0.004759
0.008095
0.012322
0.016580
0.019343
0.019315
0.016548
0.012390
0.008326
0.005153
0.002998
0.001668
0.000906
0.000498
0.000296
0.000215
0.000043
0.000396
0.001229
0.002783
0.005364
0.009215
0.014186
0.019281
0.022627
0.022588
0.019228
0.014243
0.009457
0.005790
0.003339
0.001845
0.000997
0.000546
0.000324
0.000234
0.000043
0.000396
0.001228
0.002776
0.005344
0.009167
0.014092
0.019132
0.022442
0.022410
0.019094
0.014164
0.009422
0.005778
0.003338
0.001848
0.001001
0.000549
0.000326
0.000236
0.000039
0.000357
0.001103
0.002474
0.004714
0.007986
0.012111
0.016251
0.018937
0.018923
0.016254
0.012218
0.008250
0.005132
0.003001
0.001679
0.000917
0.000506
0.000303
0.000220
0.000032
0.000293
0.000897
0.001988
0.003725
0.006185
0.009184
0.012100
0.013957
0.013963
0.012145
0.009319
0.006443
0.004101
0.002447
0.001392
0.000771
0.000431
0.000260
0.000190
0.000024
0.000221
0.000670
0.001461
0.002685
0.004357
0.006318
0.008162
0.009312
0.009330
0.008229
0.006460
0.004588
0.002999
0.001834
0.001065
0.000601
0.000341
0.000208
0.000153
0.000017
0.000156
0.000467
0.001002
0.001804
0.002864
0.004062
0.005153
0.005823
0.005845
0.005223
0.004191
0.003056
0.002052
0.001287
0.000765
0.000440
0.000254
0.000157
0.000117
0.000012
0.000105
0.000311
0.000658
0.001164
0.001811
0.002521
0.003150
0.003533
0.003553
0.003212
0.002627
0.001961
0.001350
0.000867
0.000527
0.000310
0.000182
0.000114
0.000086
0.000008
0.000070
0.000206
0.000431
0.000751
0.001150
0.001576
0.001947
0.002171
0.002188
0.001997
0.001659
0.001263
0.000889
0.000584
0.000362
0.000217
0.000130
0.000083
0.000062
0.000005
0.000050
0.000145
0.000300
0.000516
0.000781
0.001059
0.001298
0.001442
0.001456
0.001339
0.001126
0.000870
0.000623
0.000416
0.000263
0.000160
0.000097
0.000062
0.000047
0.000004
0.000040
0.000117
0.000241
0.000412
0.000620
0.000836
0.001020
0.001132
0.001144
0.001056
0.000894
0.000697
0.000503
0.000340
0.000216
0.000133
0.000081
0.000053
0.000040


SCALARS Species_1 float 1 
LOOKUP_TABLE default 
0.000321
0.000994
0.001751
0.002634
0.003662
0.004833
0.006114
0.007444
0.008738
0.009900
0.010833
0.011461
0.011741
0.011671
0.011299
0.010712
0.010027
0.009369
0.008856
0.008576
0.000341
0.001053
0.001855
0.002786
0.003870
0.005102
0.006448
0.007844
0.009201
0.010418
0.011395
0.012051
0.012343
0.012269
0.011879
0.011266
0.010550
0.009863
0.009327
0.009034
0.000374
0.001158
0.002036
0.003056
0.004241
0.005585
0.007051
0.008570
0.010044
0.011365
0.012423
0.013133
0.013446
0.013363
0.012938
0.012271
0.011494
0.010749
0.010168
0.009852
0.000419
0.001294
0.002274
0.003409
0.004725
0.006217
0.007842
0.009522
0.011152
0.012609
0.013775
0.014556
0.014897
0.014802
0.014330
0.013591
0.012732
0.011910
0.011269
0.010920
0.000467
0.001443
0.002535
0.003797
0.005259
0.006912
0.008712
0.010571
0.012371
0.013980
0.015265
0.016122
0.016495
0.016386
0.015862
0.015044
0.014095
0.013187
0.012481
0.012096
0.000514
0.001587
0.002785
0.004168
0.005768
0.007577
0.009542
0.011570
0.013534
0.015285
0.016683
0.017614
0.018017
0.017895
0.017321
0.016430
0.015395
0.014407
0.013638
0.013219
0.000552
0.001704
0.002989
0.004471
0.006183
0.008116
0.010216
0.012380
0.014474
0.016340
0.017828
0.018819
0.019246
0.019114
0.018501
0.017551
0.016449
0.015397
0.014578
0.014132
0.000576
0.001778
0.003118
0.004662
0.006443
0.008453
0.010635
0.012882
0.015055
0.016991
0.018534
0.019560
0.020002
0.019865
0.019230
0.018245
0.017103
0.016013
0.015166
0.014704
0.000583
0.001799
0.003153
0.004712
0.006509
0.008536
0.010734
0.012998
0.015185
0.017134
0.018687
0.019719
0.020165
0.020027
0.019390
0.018401
0.017255
0.016160
0.015309
0.014845
0.000571
0.001760
0.003085
0.004608
0.006364
0.008343
0.010487
0.012696
0.014829
0.016730
0.018244
0.019252
0.019688
0.019557
0.018938
0.017977
0.016863
0.015798
0.014971
0.014520
0.000540
0.001666
0.002919
0.004359
0.006019
0.007888
0.009913
0.011998
0.014012
0.015806
0.017236
0.018189
0.018603
0.018483
0.017903
0.017000
0.015953
0.014951
0.014172
0.013748
0.000494
0.001525
0.002671
0.003988
0.005505
0.007213
0.009063
0.010968
0.012808
0.014447
0.015756
0.016628
0.017010
0.016904
0.016379
0.015560
0.014607
0.013695
0.012986
0.012600
0.000438
0.001350
0.002364
0.003530
0.004871
0.006382
0.008018
0.009703
0.011331
0.012782
0.013940
0.014715
0.015057
0.014968
0.014509
0.013789
0.012950
0.012148
0.011523
0.011182
0.000375
0.001157
0.002027
0.003026
0.004176
0.005470
0.006872
0.008316
0.009712
0.010957
0.011952
0.012620
0.012917
0.012846
0.012457
0.011845
0.011130
0.010445
0.009912
0.009621
0.000312
0.000963
0.001686
0.002518
0.003475
0.004552
0.005719
0.006922
0.008085
0.009123
0.009955
0.010514
0.010765
0.010711
0.010392
0.009887
0.009296
0.008728
0.008285
0.008044
0.000253
0.000781
0.001369
0.002044
0.002821
0.003696
0.004644
0.005622
0.006568
0.007414
0.008092
0.008551
0.008759
0.008720
0.008465
0.008058
0.007581
0.007122
0.006763
0.006568
0.000202
0.000624
0.001094
0.001634
0.002256
0.002956
0.003716
0.004499
0.005258
0.005937
0.006484
0.006854
0.007026
0.006998
0.006798
0.006475
0.006096
0.005730
0.005444
0.005287
0.000162
0.000500
0.000877
0.001310
0.001810
0.002372
0.002983
0.003613
0.004225
0.004773
0.005215
0.005516
0.005658
0.005639
0.005482
0.005225
0.004922
0.004629
0.004399
0.004274
0.000134
0.000415
0.000727
0.001087
0.001502
0.001971
0.002479
0.003004
0.003514
0.003972
0.004343
0.004596
0.004717
0.004704
0.004576
0.004364
0.004113
0.003870
0.003679
0.003575
0.000120
0.000371
0.000651
0.000974
0.001346
0.001766
0.002223
0.002695
0.003153
0.003566
0.003900
0.004129
0.004239
0.004229
0.004115
0.003926
0.003701
0.003484
0.003313
0.003219


SCALARS Species_2 float 1 
LOOKUP_TABLE default 
0.000197
0.000577
0.000921
0.001206
0.001416
0.001541
0.001582
0.001546
0.001445
0.001296
0.001119
0.000932
0.000749
0.000582
0.000438
0.000320
0.000230
0.000165
0.000123
0.000102
0.000233
0.000685
0.001092
0.001429
0.001676
0.001824
0.001872
0.001828
0.001708
0.001533
0.001323
0.001102
0.000886
0.000688
0.000518
0.000380
0.000272
0.000195
0.000146
0.000122
0.000306
0.000898
0.001432
0.001872
0.002195
0.002388
0.002449
0.002390
0.002232
0.002002
0.001728
0.001438
0.001156
0.000898
0.000676
0.000495
0.000356
0.000255
0.000191