# vtk DataFile Version 2.0
generated by CFD-lab course output (written by Tobias Neckel) 
ASCII

DATASET STRUCTURED_GRID
DIMENSIONS  21 21 1 
POINTS 441 float

0.000000 0.000000 0
0.100000 0.000000 0
0.200000 0.000000 0
0.300000 0.000000 0
0.400000 0.000000 0
0.500000 0.000000 0
0.600000 0.000000 0
0.700000 0.000000 0
0.800000 0.000000 0
0.900000 0.000000 0
1.000000 0.000000 0
1.100000 0.000000 0
1.200000 0.000000 0
1.300000 0.000000 0
1.400000 0.000000 0
1.500000 0.000000 0
1.600000 0.000000 0
1.700000 0.000000 0
1.800000 0.000000 0
1.900000 0.000000 0
2.000000 0.000000 0
0.000000 0.100000 0
0.100000 0.100000 0
0.200000 0.100000 0
0.300000 0.100000 0
0.400000 0.100000 0
0.500000 0.100000 0
0.600000 0.100000 0
0.700000 0.100000 0
0.800000 0.100000 0
0.900000 0.100000 0
1.000000 0.100000 0
1.100000 0.100000 0
1.200000 0.100000 0
1.300000 0.100000 0
1.400000 0.100000 0
1.500000 0.100000 0
1.600000 0.100000 0
1.700000 0.100000 0
1.800000 0.100000 0
1.900000 0.100000 0
2.000000 0.100000 0
0.000000 0.200000 0
0.100000 0.200000 0
0.200000 0.200000 0
0.300000 0.200000 0
0.400000 0.200000 0
0.500000 0.200000 0
0.600000 0.200000 0
0.700000 0.200000 0
0.800000 0.200000 0
0.900000 0.200000 0
1.000000 0.200000 0
1.100000 0.200000 0
1.200000 0.200000 0
1.300000 0.200000 0
1.400000 0.200000 0
1.500000 0.200000 0
1.600000 0.200000 0
1.700000 0.200000 0
1.800000 0.200000 0
1.900000 0.200000 0
2.000000 0.200000 0
0.000000 0.300000 0
0.100000 0.300000 0
0.200000 0.300000 0
0.300000 0.300000 0
0.400000 0.300000 0
0.500000 0.300000 0
0.600000 0.300000 0
0.700000 0.300000 0
0.800000 0.300000 0
0.900000 0.300000 0
1.000000 0.300000 0
1.100000 0.300000 0
1.200000 0.300000 0
1.300000 0.300000 0
1.400000 0.300000 0
1.500000 0.300000 0
1.600000 0.300000 0
1.700000 0.300000 0
1.800000 0.300000 0
1.900000 0.300000 0
2.000000 0.300000 0
0.000000 0.400000 0
0.100000 0.400000 0
0.200000 0.400000 0
0.300000 0.400000 0
0.400000 0.400000 0
0.500000 0.400000 0
0.600000 0.400000 0
0.700000 0.400000 0
0.800000 0.400000 0
0.900000 0.400000 0
1.000000 0.400000 0
1.100000 0.400000 0
1.200000 0.400000 0
1.300000 0.400000 0
1.400000 0.400000 0
1.500000 0.400000 0
1.600000 0.400000 0
1.700000 0.400000 0
1.800000 0.400000 0
1.900000 0.400000 0
2.000000 0.400000 0
0.000000 0.500000 0
0.100000 0.500000 0
0.200000 0.500000 0
0.300000 0.500000 0
0.400000 0.500000 0
0.500000 0.500000 0
0.600000 0.500000 0
0.700000 0.500000 0
0.800000 0.500000 0
0.900000 0.500000 0
1.000000 0.500000 0
1.100000 0.500000 0
1.200000 0.500000 0
1.300000 0.500000 0
1.400000 0.500000 0
1.500000 0.500000 0
1.600000 0.500000 0
1.700000 0.500000 0
1.800000 0.500000 0
1.900000 0.500000 0
2.000000 0.500000 0
0.000000 0.600000 0
0.100000 0.600000 0
0.200000 0.600000 0
0.300000 0.600000 0
0.400000 0.600000 0
0.500000 0.600000 0
0.600000 0.600000 0
0.700000 0.600000 0
0.800000 0.600000 0
0.900000 0.600000 0
1.000000 0.600000 0
1.100000 0.600000 0
1.200000 0.600000 0
1.300000 0.600000 0
1.400000 0.600000 0
1.500000 0.600000 0
1.600000 0.600000 0
1.700000 0.600000 0
1.800000 0.600000 0
1.900000 0.600000 0
2.000000 0.600000 0
0.000000 0.700000 0
0.100000 0.700000 0
0.200000 0.700000 0
0.300000 0.700000 0
0.400000 0.700000 0
0.500000 0.700000 0
0.600000 0.700000 0
0.700000 0.700000 0
0.800000 0.700000 0
0.900000 0.700000 0
1.000000 0.700000 0
1.100000 0.700000 0
1.200000 0.700000 0
1.300000 0.700000 0
1.400000 0.700000 0
1.500000 0.700000 0
1.600000 0.700000 0
1.700000 0.700000 0
1.800000 0.700000 0
1.900000 0.700000 0
2.000000 0.700000 0
0.000000 0.800000 0
0.100000 0.800000 0
0.200000 0.800000 0
0.300000 0.800000 0
0.400000 0.800000 0
0.500000 0.800000 0
0.600000 0.800000 0
0.700000 0.800000 0
0.800000 0.800000 0
0.900000 0.800000 0
1.000000 0.800000 0
1.100000 0.800000 0
1.200000 0.800000 0
1.300000 0.800000 0
1.400000 0.800000 0
1.500000 0.800000 0
1.600000 0.800000 0
1.700000 0.800000 0
1.800000 0.800000 0
1.900000 0.800000 0
2.000000 0.800000 0
0.000000 0.900000 0
0.100000 0.900000 0
0.200000 0.900000 0
0.300000 0.900000 0
0.400000 0.900000 0
0.500000 0.900000 0
0.600000 0.900000 0
0.700000 0.900000 0
0.800000 0.900000 0
0.900000 0.900000 0
1.000000 0.900000 0
1.100000 0.900000 0
1.200000 0.900000 0
1.300000 0.900000 0
1.400000 0.900000 0
1.500000 0.900000 0
1.600000 0.900000 0
1.700000 0.900000 0
1.800000 0.900000 0
1.900000 0.900000 0
2.000000 0.900000 0
0.000000 1.000000 0
0.100000 1.000000 0
0.200000 1.000000 0
0.300000 1.000000 0
0.400000 1.000000 0
0.500000 1.000000 0
0.600000 1.000000 0
0.700000 1.000000 0
0.800000 1.000000 0
0.900000 1.000000 0
1.000000 1.000000 0
1.100000 1.000000 0
1.200000 1.000000 0
1.300000 1.000000 0
1.400000 1.000000 0
1.500000 1.000000 0
1.600000 1.000000 0
1.700000 1.000000 0
1.800000 1.000000 0
1.900000 1.000000 0
2.000000 1.000000 0
0.000000 1.100000 0
0.100000 1.100000 0
0.200000 1.100000 0
0.300000 1.100000 0
0.400000 1.100000 0
0.500000 1.100000 0
0.600000 1.100000 0
0.700000 1.100000 0
0.800000 1.100000 0
0.900000 1.100000 0
1.000000 1.100000 0
1.100000 1.100000 0
1.200000 1.100000 0
1.300000 1.100000 0
1.400000 1.100000 0
1.500000 1.100000 0
1.600000 1.100000 0
1.700000 1.100000 0
1.800000 1.100000 0
1.900000 1.100000 0
2.000000 1.100000 0
0.000000 1.200000 0
0.100000 1.200000 0
0.200000 1.200000 0
0.300000 1.200000 0
0.400000 1.200000 0
0.500000 1.200000 0
0.600000 1.200000 0
0.700000 1.200000 0
0.800000 1.200000 0
0.900000 1.200000 0
1.000000 1.200000 0
1.100000 1.200000 0
1.200000 1.200000 0
1.300000 1.200000 0
1.400000 1.200000 0
1.500000 1.200000 0
1.600000 1.200000 0
1.700000 1.200000 0
1.800000 1.200000 0
1.900000 1.200000 0
2.000000 1.200000 0
0.000000 1.300000 0
0.100000 1.300000 0
0.200000 1.300000 0
0.300000 1.300000 0
0.400000 1.300000 0
0.500000 1.300000 0
0.600000 1.300000 0
0.700000 1.300000 0
0.800000 1.300000 0
0.900000 1.300000 0
1.000000 1.300000 0
1.100000 1.300000 0
1.200000 1.300000 0
1.300000 1.300000 0
1.400000 1.300000 0
1.500000 1.300000 0
1.600000 1.300000 0
1.700000 1.300000 0
1.800000 1.300000 0
1.900000 1.300000 0
2.000000 1.300000 0
0.000000 1.400000 0
0.100000 1.400000 0
0.200000 1.400000 0
0.300000 1.400000 0
0.400000 1.400000 0
0.500000 1.400000 0
0.600000 1.400000 0
0.700000 1.400000 0
0.800000 1.400000 0
0.900000 1.400000 0
1.000000 1.400000 0
1.100000 1.400000 0
1.200000 1.400000 0
1.300000 1.400000 0
1.400000 1.400000 0
1.500000 1.400000 0
1.600000 1.400000 0
1.700000 1.400000 0
1.800000 1.400000 0
1.900000 1.400000 0
2.000000 1.400000 0
0.000000 1.500000 0
0.100000 1.500000 0
0.200000 1.500000 0
0.300000 1.500000 0
0.400000 1.500000 0
0.500000 1.500000 0
0.600000 1.500000 0
0.700000 1.500000 0
0.800000 1.500000 0
0.900000 1.500000 0
1.000000 1.500000 0
1.100000 1.500000 0
1.200000 1.500000 0
1.300000 1.500000 0
1.400000 1.500000 0
1.500000 1.500000 0
1.600000 1.500000 0
1.700000 1.500000 0
1.800000 1.500000 0
1.900000 1.500000 0
2.000000 1.500000 0
0.000000 1.600000 0
0.100000 1.600000 0
0.200000 1.600000 0
0.300000 1.600000 0
0.400000 1.600000 0
0.500000 1.600000 0
0.600000 1.600000 0
0.700000 1.600000 0
0.800000 1.600000 0
0.900000 1.600000 0
1.000000 1.600000 0
1.100000 1.600000 0
1.200000 1.600000 0
1.300000 1.600000 0
1.400000 1.600000 0
1.500000 1.600000 0
1.600000 1.600000 0
1.700000 1.600000 0
1.800000 1.600000 0
1.900000 1.600000 0
2.000000 1.600000 0
0.000000 1.700000 0
0.100000 1.700000 0
0.200000 1.700000 0
0.300000 1.700000 0
0.400000 1.700000 0
0.500000 1.700000 0
0.600000 1.700000 0
0.700000 1.700000 0
0.800000 1.700000 0
0.900000 1.700000 0
1.000000 1.700000 0
1.100000 1.700000 0
1.200000 1.700000 0
1.300000 1.700000 0
1.400000 1.700000 0
1.500000 1.700000 0
1.600000 1.700000 0
1.700000 1.700000 0
1.800000 1.700000 0
1.900000 1.700000 0
2.000000 1.700000 0
0.000000 1.800000 0
0.100000 1.800000 0
0.200000 1.800000 0
0.300000 1.800000 0
0.400000 1.800000 0
0.500000 1.800000 0
0.600000 1.800000 0
0.700000 1.800000 0
0.800000 1.800000 0
0.900000 1.800000 0
1.000000 1.800000 0
1.100000 1.800000 0
1.200000 1.800000 0
1.300000 1.800000 0
1.400000 1.800000 0
1.500000 1.800000 0
1.600000 1.800000 0
1.700000 1.800000 0
1.800000 1.800000 0
1.900000 1.800000 0
2.000000 1.800000 0
0.000000 1.900000 0
0.100000 1.900000 0
0.200000 1.900000 0
0.300000 1.900000 0
0.400000 1.900000 0
0.500000 1.900000 0
0.600000 1.900000 0
0.700000 1.900000 0
0.800000 1.900000 0
0.900000 1.900000 0
1.000000 1.900000 0
1.100000 1.900000 0
1.200000 1.900000 0
1.300000 1.900000 0
1.400000 1.900000 0
1.500000 1.900000 0
1.600000 1.900000 0
1.700000 1.900000 0
1.800000 1.900000 0
1.900000 1.900000 0
2.000000 1.900000 0
0.000000 2.000000 0
0.100000 2.000000 0
0.200000 2.000000 0
0.300000 2.000000 0
0.400000 2.000000 0
0.500000 2.000000 0
0.600000 2.000000 0
0.700000 2.000000 0
0.800000 2.000000 0
0.900000 2.000000 0
1.000000 2.000000 0
1.100000 2.000000 0
1.200000 2.000000 0
1.300000 2.000000 0
1.400000 2.000000 0
1.500000 2.000000 0
1.600000 2.000000 0
1.700000 2.000000 0
1.800000 2.000000 0
1.900000 2.000000 0
2.000000 2.000000 0
POINT_DATA 441 

VECTORS velocity float
0.000000 0.000000 0
-0.000002 0.000000 0
-0.000010 0.000000 0
-0.000008 0.000000 0
-0.000002 0.000000 0
0.000004 0.000000 0
0.000006 0.000000 0
0.000005 0.000000 0
0.000002 0.000000 0
-0.000001 0.000000 0
-0.000002 0.000000 0
-0.000002 0.000000 0
-0.000002 0.000000 0
-0.000001 0.000000 0
0.000000 0.000000 0
0.000000 0.000000 0
0.000000 0.000000 0
0.000000 0.000000 0
-0.000000 0.000000 0
-0.000000 0.000000 0
-0.000000 0.000000 0
0.000000 -0.000009 0
-0.000000 -0.000012 0
-0.000000 -0.000011 0
0.000004 -0.000002 0
0.000008 0.000008 0
0.000010 0.000014 0
0.000009 0.000013 0
0.000005 0.000009 0
-0.000001 0.000004 0
-0.000008 0.000000 0
-0.000014 -0.000001 0
-0.000019 -0.000000 0
-0.000022 0.000001 0
-0.000025 0.000002 0
-0.000026 0.000002 0
-0.000027 0.000002 0
-0.000028 0.000001 0
-0.000028 0.000001 0
-0.000027 0.000000 0
-0.000027 -0.000000 0
-0.000027 -0.000000 0
0.000000 -0.000008 0
0.000001 -0.000010 0
0.000008 -0.000001 0
0.000012 0.000006 0
0.000012 0.000007 0
0.000010 0.000005 0
0.000006 0.000003 0
0.000002 0.000002 0
-0.000003 0.000004 0
-0.000008 0.000006 0
-0.000013 0.000009 0
-0.000018 0.000010 0
-0.000023 0.000009 0
-0.000026 0.000007 0
-0.000028 0.000004 0
-0.000029 0.000002 0
-0.000029 0.000000 0
-0.000029 -0.000000 0
-0.000029 -0.000001 0
-0.000028 -0.000001 0
-0.000028 -0.000000 0
0.000000 0.000003 0
0.000008 -0.000005 0
0.000012 -0.000003 0
0.000012 -0.000004 0
0.000011 -0.000004 0
0.000009 -0.000003 0
0.000008 0.000002 0
0.000005 0.000009 0
0.000001 0.000015 0
-0.000005 0.000019 0
-0.000013 0.000020 0
-0.000020 0.000017 0
-0.000025 0.000012 0
-0.000029 0.000008 0
-0.000031 0.000004 0
-0.000031 0.000001 0
-0.000030 -0.000000 0
-0.000029 -0.000001 0
-0.000028 -0.000001 0
-0.000028 -0.000001 0
-0.000028 -0.000001 0
0.000000 0.000005 0
0.000009 -0.000010 0
0.000010 -0.000013 0
0.000012 -0.000013 0
0.000013 -0.000008 0
0.000015 0.000001 0
0.000015 0.000012 0
0.000011 0.000021 0
0.000005 0.000027 0
-0.000005 0.000028 0
-0.000015 0.000026 0
-0.000023 0.000020 0
-0.000029 0.000014 0
-0.000032 0.000008 0
-0.000033 0.000004 0
-0.000032 0.000001 0
-0.000031 -0.000001 0
-0.000029 -0.000002 0
-0.000028 -0.000002 0
-0.000027 -0.000001 0
-0.000027 -0.000001 0
0.000000 -0.000001 0
0.000005 -0.000019 0
0.000010 -0.000019 0
0.000015 -0.000014 0
0.000020 -0.000005 0
0.000022 0.000006 0
0.000022 0.000017 0
0.000016 0.000027 0
0.000007 0.000034 0
-0.000005 0.000036 0
-0.000018 0.000033 0
-0.000028 0.000026 0
-0.000033 0.000018 0
-0.000035 0.000010 0
-0.000035 0.000004 0
-0.000033 -0.000000 0
-0.000031 -0.000002 0
-0.000029 -0.000003 0
-0.000027 -0.000003 0
-0.000026 -0.000002 0
-0.000026 -0.000001 0
0.000000 -0.000002 0
0.000005 -0.000025 0
0.000013 -0.000022 0
0.000020 -0.000015 0
0.000025 -0.000007 0
0.000028 0.000004 0
0.000027 0.000017 0
0.000021 0.000031 0
0.000010 0.000043 0
-0.000005 0.000048 0
-0.000020 0.000046 0
-0.000031 0.000036 0
-0.000037 0.000024 0
-0.000039 0.000012 0
-0.000037 0.000003 0
-0.000034 -0.000003 0
-0.000031 -0.000005 0
-0.000028 -0.000005 0
-0.000026 -0.000004 0
-0.000024 -0.000002 0
-0.000024 -0.000001 0
0.000000 0.000000 0
0.000006 -0.000029 0
0.000015 -0.000027 0
0.000022 -0.000022 0
0.000027 -0.000015 0
0.000031 -0.000002 0
0.000032 0.000017 0
0.000026 0.000040 0
0.000014 0.000059 0
-0.000003 0.000067 0
-0.000021 0.000062 0
-0.000034 0.000047 0
-0.000041 0.000027 0
-0.000041 0.000010 0
-0.000037 -0.000001 0
-0.000033 -0.000007 0
-0.000029 -0.000009 0
-0.000025 -0.000008 0
-0.000023 -0.000006 0
-0.000021 -0.000003 0
-0.000021 -0.000001 0
0.000000 0.000002 0
0.000006 -0.000035 0
0.000013 -0.000036 0
0.000020 -0.000032 0
0.000026 -0.000023 0
0.000032 -0.000005 0
0.000034 0.000021 0
0.000030 0.000051 0
0.000017 0.000077 0
-0.000002 0.000088 0
-0.000022 0.000079 0
-0.000035 0.000055 0
-0.000040 0.000029 0
-0.000039 0.000007 0
-0.000034 -0.000006 0
-0.000029 -0.000012 0
-0.000024 -0.000013 0
-0.000021 -0.000011 0
-0.000018 -0.000008 0
-0.000017 -0.000004 0
-0.000017 -0.000002 0
0.000000 0.000000 0
0.000004 -0.000042 0
0.000010 -0.000043 0
0.000016 -0.000039 0
0.000022 -0.000028 0
0.000028 -0.000007 0
0.000030 0.000023 0
0.000027 0.000060 0
0.000016 0.000092 0
-0.000002 0.000106 0
-0.000019 0.000094 0
-0.000030 0.000063 0
-0.000033 0.000030 0
-0.000031 0.000004 0
-0.000026 -0.000011 0
-0.000021 -0.000017 0
-0.000017 -0.000017 0
-0.000014 -0.000014 0
-0.000012 -0.000010 0
-0.000011 -0.000004 0
-0.000011 -0.000002 0
0.000000 -0.000001 0
0.000001 -0.000047 0
0.000005 -0.000047 0
0.000010 -0.000042 0
0.000013 -0.000032 0
0.000016 -0.000011 0
0.000018 0.000022 0
0.000016 0.000064 0
0.000009 0.000104 0
-0.000001 0.000120 0
-0.000010 0.000106 0
-0.000016 0.000070 0
-0.000018 0.000031 0
-0.000016 0.000001 0
-0.000013 -0.000015 0
-0.000011 -0.000021 0
-0.000008 -0.000020 0
-0.000006 -0.000016 0
-0.000005 -0.000011 0
-0.000005 -0.000005 0
-0.000005 -0.000002 0
0.000000 -0.000000 0
-0.000001 -0.000047 0
0.000000 -0.000048 0
0.000000 -0.000044 0
0.000000 -0.000035 0
-0.000000 -0.000014 0
-0.000001 0.000021 0
-0.000000 0.000066 0
0.000000 0.000108 0
0.000001 0.000126 0
0.000002 0.000111 0
0.000002 0.000072 0
0.000003 0.000030 0
0.000003 -0.000000 0
0.000003 -0.000017 0
0.000003 -0.000023 0
0.000003 -0.000022 0
0.000003 -0.000017 0
0.000003 -0.000011 0
0.000003 -0.000005 0
0.000003 -0.000002 0
0.000000 0.000000 0
-0.000003 -0.000046 0
-0.000006 -0.000047 0
-0.000009 -0.000043 0
-0.000013 -0.000033 0
-0.000016 -0.000013 0
-0.000018 0.000021 0
-0.000016 0.000064 0
-0.000009 0.000103 0
0.000002 0.000120 0
0.000014 0.000105 0
0.000021 0.000069 0
0.000023 0.000030 0
0.000021 0.000001 0
0.000019 -0.000015 0
0.000016 -0.000021 0
0.000013 -0.000020 0
0.000012 -0.000017 0
0.000011 -0.000011 0
0.000010 -0.000005 0
0.000010 -0.000002 0
0.000000 -0.000000 0
-0.000005 -0.000042 0
-0.000011 -0.000042 0
-0.000016 -0.000038 0
-0.000022 -0.000027 0
-0.000027 -0.000008 0
-0.000030 0.000021 0
-0.000026 0.000058 0
-0.000015 0.000090 0
0.000003 0.000104 0
0.000021 0.000092 0
0.000033 0.000062 0
0.000037 0.000029 0
0.000036 0.000004 0
0.000031 -0.000011 0
0.000027 -0.000017 0
0.000023 -0.000018 0
0.000020 -0.000014 0
0.000018 -0.000010 0
0.000017 -0.000004 0
0.000017 -0.000002 0
0.000000 -0.000000 0
-0.000007 -0.000036 0
-0.000013 -0.000035 0
-0.000020 -0.000030 0
-0.000027 -0.000021 0
-0.000032 -0.000004 0
-0.000034 0.000020 0
-0.000029 0.000048 0
-0.000016 0.000073 0
0.000004 0.000083 0
0.000024 0.000075 0
0.000038 0.000053 0
0.000044 0.000028 0
0.000043 0.000007 0
0.000039 -0.000006 0
0.000034 -0.000012 0
0.000030 -0.000014 0
0.000026 -0.000012 0
0.000024 -0.000008 0
0.000023 -0.000004 0
0.000023 -0.000002 0
0.000000 -0.000000 0
-0.000007 -0.000029 0
-0.000014 -0.000028 0
-0.000021 -0.000023 0
-0.000027 -0.000015 0
-0.000032 -0.000001 0
-0.000032 0.000018 0
-0.000027 0.000039 0
-0.000013 0.000056 0
0.000005 0.000064 0
0.000024 0.000058 0
0.000038 0.000043 0
0.000044 0.000025 0
0.000045 0.000009 0
0.000042 -0.000002 0
0.000038 -0.000008 0
0.000034 -0.000010 0
0.000031 -0.000009 0
0.000029 -0.000006 0
0.000027 -0.000003 0
0.000027 -0.000001 0
0.000000 0.000000 0
-0.000006 -0.000022 0
-0.000013 -0.000021 0
-0.000020 -0.000017 0
-0.000025 -0.000010 0
-0.000028 0.000001 0
-0.000028 0.000015 0
-0.000021 0.000029 0
-0.000010 0.000041 0
0.000006 0.000046 0
0.000022 0.000043 0
0.000034 0.000033 0
0.000042 0.000020 0
0.000044 0.000009 0
0.000043 0.000001 0
0.000040 -0.000004 0
0.000037 -0.000006 0
0.000034 -0.000006 0
0.000032 -0.000005 0
0.000031 -0.000002 0
0.000030 -0.000001 0
0.000000 -0.000000 0
-0.000006 -0.000016 0
-0.000012 -0.000015 0
-0.000018 -0.000012 0
-0.000022 -0.000006 0
-0.000024 0.000002 0
-0.000022 0.000011 0
-0.000017 0.000021 0
-0.000006 0.000028 0
0.000007 0.000032 0
0.000020 0.000030 0
0.000031 0.000024 0
0.000038 0.000016 0
0.000041 0.000008 0
0.000041 0.000002 0
0.000040 -0.000002 0
0.000038 -0.000004 0
0.000036 -0.000004 0
0.000034 -0.000003 0
0.000033 -0.000002 0
0.000033 -0.000001 0
0.000000 -0.000000 0
-0.000006 -0.000010 0
-0.000011 -0.000009 0
-0.000016 -0.000007 0
-0.000019 -0.000003 0
-0.000020 0.000002 0
-0.000018 0.000007 0
-0.000013 0.000013 0
-0.000004 0.000018 0
0.000007 0.000020 0
0.000019 0.000019 0
0.000028 0.000015 0
0.000035 0.000010 0
0.000039 0.000006 0
0.000040 0.000002 0
0.000040 -0.000001 0
0.000038 -0.000002 0
0.000037 -0.000002 0
0.000035 -0.000002 0
0.000034 -0.000001 0
0.000034 -0.000001 0
0.000000 -0.000000 0
-0.000005 -0.000005 0
-0.000010 -0.000004 0
-0.000015 -0.000003 0
-0.000017 -0.000002 0
-0.000018 0.000001 0
-0.000016 0.000003 0
-0.000011 0.000006 0
-0.000003 0.000008 0
0.000007 0.000009 0
0.000017 0.000009 0
0.000026 0.000007 0
0.000032 0.000005 0
0.000036 0.000003 0
0.000038 0.000001 0
0.000038 -0.000000 0
0.000037 -0.000001 0
0.000036 -0.000001 0
0.000035 -0.000001 0
0.000034 -0.000000 0
0.000034 -0.000000 0
0.000000 0.000000 0
0.000000 0.000000 0
-0.000000 0.000000 0
-0.000000 0.000000 0
-0.000000 0.000000 0
-0.000000 0.000000 0
-0.000000 0.000000 0
0.000000 0.000000 0
0.000000 0.000000 0
0.000000 0.000000 0
0.000000 0.000000 0
0.000000 0.000000 0
0.000000 0.000000 0
0.000000 0.000000 0
0.000000 0.000000 0
0.000000 0.000000 0
0.000000 0.000000 0
0.000000 0.000000 0
0.000000 0.000000 0
0.000000 0.000000 0
0.000000 0.000000 0

CELL_DATA 400 
SCALARS pressure float 1 
LOOKUP_TABLE default 
0.242579
0.242587
0.242626
0.242659
0.242666
0.242649
0.242624
0.242603
0.242594
0.242597
0.242606
0.242615
0.242622
0.242625
0.242625
0.242624
0.242622
0.242622
0.242622
0.242622
0.219613
0.219636
0.219639
0.219627
0.219611
0.219600
0.219599
0.219606
0.219615
0.219622
0.219626
0.219626
0.219624
0.219621
0.219620
0.219619
0.219620
0.219621
0.219621
0.219622
0.196646
0.196629
0.196604
0.196591
0.196594
0.196607
0.196622
0.196632
0.196634
0.196630
0.196624
0.196618
0.196615
0.196615
0.196617
0.196619
0.196620
0.196621
0.196622
0.196622
0.173634
0.173607
0.173596
0.173602
0.173617
0.173630
0.173637
0.173635
0.173627
0.173619
0.173613
0.173612
0.173613
0.173616
0.173619
0.173621
0.173622
0.173622
0.173622
0.173623
0.150615
0.150611
0.150615
0.150623
0.150627
0.150628
0.150624
0.150619
0.150614
0.150613
0.150614
0.150616
0.150619
0.150620
0.150621
0.150621
0.150621
0.150622
0.150622
0.150622
0.127619
0.127626
0.127626
0.127621
0.127615
0.127612
0.127612
0.127614
0.127617
0.127620
0.127621
0.127621
0.127621
0.127620
0.127620
0.127620
0.127620
0.127621
0.127622
0.127622
0.104628
0.104628
0.104620
0.104610
0.104607
0.104610
0.104616
0.104621
0.104624
0.104624
0.104622
0.104620
0.104618
0.104618
0.104619
0.104620
0.104621
0.104621
0.104622
0.104622
0.081627
0.081622
0.081615
0.081612
0.081614
0.081619
0.081622
0.081624
0.081623
0.081620
0.081618
0.081617
0.081618
0.081619
0.081620
0.081621
0.081622
0.081622
0.081622
0.081622
0.058620
0.058621
0.058621
0.058621
0.058621
0.058621
0.058620
0.058619
0.058618
0.058618
0.058619
0.058619
0.058620
0.058621
0.058621
0.058622
0.058622
0.058622
0.058622
0.058622
0.035620
0.035626
0.035626
0.035624
0.035620
0.035617
0.035616
0.035617
0.035619
0.035621
0.035622
0.035622
0.035622
0.035622
0.035622
0.035622
0.035622
0.035622
0.035622
0.035622
0.012624
0.012627
0.012625
0.012621
0.012618
0.012618
0.012619
0.012621
0.012623
0.012624
0.012624
0.012623
0.012622
0.012622
0.012622
0.012622
0.012622
0.012622
0.012622
0.012623
-0.010376
-0.010375
-0.010376
-0.010378
-0.010378
-0.010377
-0.010376
-0.010376
-0.010375
-0.010375
-0.010376
-0.010376
-0.010377
-0.010377
-0.010377
-0.010377
-0.010377
-0.010377
-0.010377
-0.010377
-0.033378
-0.033376
-0.033374
-0.033374
-0.033374
-0.033375
-0.033376
-0.033376
-0.033375
-0.033375
-0.033375
-0.033375
-0.033375
-0.033375
-0.033376
-0.033376
-0.033377
-0.033377
-0.033377
-0.033377
-0.056377
-0.056374
-0.056372
-0.056372
-0.056374
-0.056375
-0.056376
-0.056375
-0.056374
-0.056373
-0.056373
-0.056373
-0.056374
-0.056375
-0.056375
-0.056376
-0.056376
-0.056377
-0.056377
-0.056377
-0.079375
-0.079374
-0.079373
-0.079373
-0.079374
-0.079374
-0.079374
-0.079373
-0.079373
-0.079372
-0.079372
-0.079373
-0.079374
-0.079374
-0.079375
-0.079376
-0.079376
-0.079376
-0.079377
-0.079377
-0.102375
-0.102374
-0.102374
-0.102373
-0.102372
-0.102372
-0.102372
-0.102372
-0.102372
-0.102372
-0.102372
-0.102373
-0.102373
-0.102374
-0.102375
-0.102375
-0.102376
-0.102376
-0.102377
-0.102377
-0.125375
-0.125375
-0.125373
-0.125372
-0.125371
-0.125372
-0.125372
-0.125372
-0.125372
-0.125372
-0.125372
-0.125373
-0.125373
-0.125374
-0.125374
-0.125375
-0.125376
-0.125376
-0.125377
-0.125377
-0.148374
-0.148374
-0.148373
-0.148372
-0.148372
-0.148372
-0.148372
-0.148372
-0.148372
-0.148372
-0.148372
-0.148372
-0.148373
-0.148373
-0.148374
-0.148375
-0.148375
-0.148376
-0.148377
-0.148377
-0.171374
-0.171374
-0.171373
-0.171372
-0.171372
-0.171372
-0.171372
-0.171372
-0.171372
-0.171372
-0.171372
-0.171372
-0.171373
-0.171373
-0.171374
-0.171375
-0.171375
-0.171376
-0.171377
-0.171377
-0.194373
-0.194374
-0.194373
-0.194372
-0.194372
-0.194371
-0.194371
-0.194371
-0.194372
-0.194372
-0.194372
-0.194372
-0.194373
-0.194373
-0.194374
-0.194375
-0.194375
-0.194376
-0.194376
-0.194377

SCALARS temperature float 1 
LOOKUP_TABLE default 
0.000002
0.000016
0.000045
0.000089
0.000148
0.000216
0.000284
0.000341
0.000376
0.000382
0.000359
0.000313
0.000254
0.000193
0.000138
0.000094
0.000062
0.000042
0.000029
0.000024
0.000002
0.000020
0.000058
0.000116
0.000193
0.000283
0.000373
0.000449
0.000496
0.000503
0.000471
0.000409
0.000330
0.000249
0.000177
0.000120
0.000079
0.000052
0.000037
0.000030
0.000003
0.000031
0.000089
0.000179
0.000299
0.000441
0.000586
0.000708
0.000782
0.000792
0.000738
0.000635
0.000507
0.000378
0.000265
0.000178
0.000116
0.000076
0.000053
0.000042
0.000006
0.000051
0.000146
0.000297
0.000501
0.000747
0.001000
0.001216
0.001346
0.001360
0.001258
0.001071
0.000843
0.000619
0.000428
0.000282
0.000181
0.000117
0.000080
0.000064
0.000009
0.000084
0.000242
0.000497
0.000851
0.001283
0.001738
0.002131
0.002368
0.002387
0.002190
0.001839
0.001424
0.001027
0.000697
0.000451
0.000285
0.000181
0.000123
0.000098
0.000015
0.000134
0.000390
0.000810
0.001407
0.002155
0.002964
0.003674
0.004104
0.004129
0.003752
0.003102
0.002356
0.001663
0.001106
0.000702
0.000436
0.000273
0.000183
0.000144
0.000023
0.000203
0.000597
0.001257
0.002220
0.003463
0.004848
0.006096
0.006860
0.006888
0.006189
0.005023
0.003731
0.002573
0.001672
0.001041
0.000634
0.000392
0.000260
0.000203
0.000032
0.000288
0.000855
0.001825
0.003283
0.005230
0.007478
0.009569
0.010867
0.010892
0.009663
0.007680
0.005563
0.003742
0.002376
0.001450
0.000869
0.000529
0.000348
0.000270
0.000042
0.000378
0.001133
0.002451
0.004487
0.007303
0.010677
0.013925
0.015981
0.015995
0.014001
0.010886
0.007689
0.005045
0.003135
0.001878
0.001108
0.000667
0.000435
0.000336
0.000050
0.000456
0.001374
0.003005
0.005584
0.009253
0.013796
0.018303
0.021214
0.021212
0.018351
0.013998
0.009675
0.006220
0.003799
0.002244
0.001310
0.000782
0.000507
0.000391
0.000055
0.000501
0.001516
0.003333
0.006243
0.010449
0.015756
0.021115
0.024616
0.024605
0.021147
0.015956
0.010895
0.006927
0.004192
0.002460
0.001429
0.000850
0.000549
0.000423
0.000056
0.000501
0.001515
0.003328
0.006225
0.010406
0.015669
0.020977
0.024446
0.024441
0.021026
0.015888
0.010867
0.006922
0.004197
0.002467
0.001435
0.000855
0.000554
0.000427
0.000051
0.000457
0.001375
0.002998
0.005550
0.009161
0.013609
0.018006
0.020847
0.020861
0.018093
0.013857
0.009623
0.006219
0.003818
0.002267
0.001331
0.000798
0.000520
0.000402
0.000043
0.000382
0.001141
0.002457
0.004474
0.007239
0.010529
0.013680
0.015678
0.015710
0.013802
0.010794
0.007679
0.005079
0.003183
0.001923
0.001145
0.000695
0.000456
0.000355
0.000033
0.000297
0.000878
0.001862
0.003324
0.005257
0.007469
0.009514
0.010787
0.010827
0.009650
0.007725
0.005649
0.003839
0.002466
0.001522
0.000923
0.000569
0.000378
0.000296
0.000024
0.000218
0.000637
0.001331
0.002330
0.003604
0.005008
0.006266
0.007037
0.007077
0.006394
0.005234
0.003931
0.002746
0.001810
0.001144
0.000707
0.000443
0.000298
0.000235
0.000017
0.000155
0.000448
0.000922
0.001585
0.002405
0.003280
0.004044
0.004508
0.004544
0.004155
0.003468
0.002667
0.001911
0.001291
0.000834
0.000527
0.000336
0.000229
0.000182
0.000012
0.000110
0.000316
0.000643
0.001089
0.001627
0.002186
0.002665
0.002956
0.002986
0.002757
0.002338
0.001834
0.001343
0.000927
0.000611
0.000393
0.000255
0.000176
0.000141
0.000009
0.000083
0.000236
0.000476
0.000798
0.001178
0.001568
0.001897
0.002097
0.002123
0.001974
0.001694
0.001348
0.001003
0.000704
0.000472
0.000308
0.000202
0.000141
0.000114
0.000008
0.000070
0.000199
0.000399
0.000665
0.000977
0.001293
0.001559
0.001721
0.001744
0.001628
0.001406
0.001128
0.000847
0.000600
0.000405
0.000267
0.000177
0.000124
0.000100


SCALARS Species_1 float 1 
LOOKUP_TABLE default 
0.000412
0.001260
0.002174
0.003183
0.004298
0.005510
0.006783
0.008064
0.009283
0.010361
0.011228
0.011829
0.012134
0.012150
0.011918
0.011508
0.011013
0.010530
0.010151
0.009943
0.000429
0.001310
0.002260
0.003307
0.004462
0.005716
0.007033
0.008356
0.009614
0.010727
0.011620
0.012239
0.012554
0.012571
0.012332
0.011912
0.011403
0.010907
0.010517
0.010304
0.000458
0.001399
0.002412
0.003526
0.004755
0.006086
0.007483
0.008885
0.010217
0.011394
0.012339
0.012992
0.013324
0.013341
0.013088
0.012643
0.012106
0.011582
0.011171
0.010946
0.000496
0.001514
0.002608
0.003811
0.005136
0.006569
0.008071
0.009577
0.011007
0.012269
0.013281
0.013979
0.014333
0.014350
0.014078
0.013600
0.013024
0.012463
0.012023
0.011782
0.000537
0.001640
0.002823
0.004123
0.005552
0.007097
0.008714
0.010335
0.011871
0.013227
0.014313
0.015061
0.015439
0.015455
0.015162
0.014648
0.014029
0.013427
0.012955
0.012696
0.000576
0.001759
0.003027
0.004418
0.005946
0.007596
0.009322
0.011051
0.012688
0.014132
0.015287
0.016083
0.016483
0.016499
0.016186
0.015638
0.014979
0.014339
0.013836
0.013561
0.000608
0.001855
0.003191
0.004655
0.006261
0.007995
0.009808
0.011621
0.013338
0.014851
0.016062
0.016894
0.017313
0.017329
0.017000
0.016427
0.015737
0.015066
0.014540
0.014253
0.000627
0.001913
0.003290
0.004797
0.006451
0.008234
0.010096
0.011959
0.013722
0.015275
0.016517
0.017371
0.017801
0.017817
0.017480
0.016893
0.016186
0.015499
0.014961
0.014667
0.000630
0.001924
0.003307
0.004822
0.006482
0.008270
0.010138
0.012006
0.013772
0.015328
0.016572
0.017428
0.017859
0.017876
0.017540
0.016954
0.016248
0.015562
0.015024
0.014730
0.000617
0.001883
0.003237
0.004718
0.006340
0.008087
0.009912
0.011735
0.013460
0.014979
0.016193
0.017029
0.017451
0.017470
0.017144
0.016575
0.015888
0.015221
0.014698
0.014412
0.000587
0.001792
0.003080
0.004489
0.006032
0.007693
0.009426
0.011159
0.012797
0.014240
0.015395
0.016190
0.016593
0.016613
0.016307
0.015769
0.015120
0.014490
0.013994
0.013724
0.000544
0.001659
0.002850
0.004153
0.005580
0.007115
0.008718
0.010320
0.011834
0.013168
0.014236
0.014973
0.015348
0.015370
0.015091
0.014597
0.014001
0.013421
0.012965
0.012716
0.000489
0.001493
0.002565
0.003738
0.005021
0.006403
0.007845
0.009285
0.010648
0.011850
0.012812
0.013477
0.013817
0.013840
0.013593
0.013153
0.012620
0.012100
0.011692
0.011469
0.000429
0.001308
0.002249
0.003277
0.004402
0.005613
0.006877
0.008140
0.009335
0.010390
0.011235
0.011821
0.012122
0.012147
0.011934
0.011551
0.011087
0.010635
0.010279
0.010084
0.000367
0.001120
0.001925
0.002806
0.003769
0.004806
0.005889
0.006972
0.007997
0.008901
0.009628
0.010133
0.010394
0.010419
0.010240
0.009917
0.009522
0.009136
0.008833
0.008667
0.000308
0.000941
0.001618
0.002359
0.003169
0.004042
0.004953
0.005865
0.006728
0.007492
0.008106
0.008533
0.008757
0.008782
0.008635
0.008366
0.008036
0.007714
0.007460
0.007321
0.000257
0.000784
0.001349
0.001966
0.002642
0.003370
0.004131
0.004893
0.005615
0.006254
0.006769
0.007129
0.007320
0.007344
0.007224
0.007002
0.006730
0.006462
0.006251
0.006135
0.000216
0.000658
0.001132
0.001651
0.002220
0.002832
0.003473
0.004115
0.004724
0.005263
0.005699
0.006005
0.006169
0.006192
0.006094
0.005910
0.005682
0.005458
0.005281
0.005184
0.000187
0.000570
0.000982
0.001432
0.001926
0.002458
0.003015
0.003573
0.004104
0.004574
0.004955
0.005223
0.005368
0.005390
0.005307
0.005149
0.004953
0.004759
0.004606
0.004521
0.000172
0.000525
0.000904
0.001320
0.001775
0.002266
0.002780
0.003296
0.003786
0.004221
0.004574
0.004823
0.004958
0.004980
0.004905
0.004759
0.004579
0.004400
0.004259
0.004181


SCALARS Species_2 float 1 
LOOKUP_TABLE default 
0.000239
0.000703
0.001124
0.001478
0.001746
0.001917
0.001990
0.001971
0.001874
0.001716
0.001518
0.001299
0.001078
0.000868
0.000680
0.000521
0.000394
0.000300
0.000238
0.000207
0.000272
0.000799
0.001277
0.001678
0.001982
0.002176
0.002258
0.002237
0.002126
0.001947
0.001723
0.001474
0.001223
0.000985
0.000773
0.000592
0.000448
0.000341
0.000271
0.000236
0.000336
0.000987
0.001577
0.002072
0.002445
0.002683
0.002784
0.002757
0.002620
0.002399
0.002121
0.001816
0.001506
0.001213
0.000952
0.000730
0.000553
0.000421
0.000334
0.000291