# vtk DataFile Version 2.0
generated by CFD-lab course output (written by Tobias Neckel) 
ASCII

DATASET STRUCTURED_GRID
DIMENSIONS  21 21 1 
POINTS 441 float

0.000000 0.000000 0
0.100000 0.000000 0
0.200000 0.000000 0
0.300000 0.000000 0
0.400000 0.000000 0
0.500000 0.000000 0
0.600000 0.000000 0
0.700000 0.000000 0
0.800000 0.000000 0
0.900000 0.000000 0
1.000000 0.000000 0
1.100000 0.000000 0
1.200000 0.000000 0
1.300000 0.000000 0
1.400000 0.000000 0
1.500000 0.000000 0
1.600000 0.000000 0
1.700000 0.000000 0
1.800000 0.000000 0
1.900000 0.000000 0
2.000000 0.000000 0
0.000000 0.100000 0
0.100000 0.100000 0
0.200000 0.100000 0
0.300000 0.100000 0
0.400000 0.100000 0
0.500000 0.100000 0
0.600000 0.100000 0
0.700000 0.100000 0
0.800000 0.100000 0
0.900000 0.100000 0
1.000000 0.100000 0
1.100000 0.100000 0
1.200000 0.100000 0
1.300000 0.100000 0
1.400000 0.100000 0
1.500000 0.100000 0
1.600000 0.100000 0
1.700000 0.100000 0
1.800000 0.100000 0
1.900000 0.100000 0
2.000000 0.100000 0
0.000000 0.200000 0
0.100000 0.200000 0
0.200000 0.200000 0
0.300000 0.200000 0
0.400000 0.200000 0
0.500000 0.200000 0
0.600000 0.200000 0
0.700000 0.200000 0
0.800000 0.200000 0
0.900000 0.200000 0
1.000000 0.200000 0
1.100000 0.200000 0
1.200000 0.200000 0
1.300000 0.200000 0
1.400000 0.200000 0
1.500000 0.200000 0
1.600000 0.200000 0
1.700000 0.200000 0
1.800000 0.200000 0
1.900000 0.200000 0
2.000000 0.200000 0
0.000000 0.300000 0
0.100000 0.300000 0
0.200000 0.300000 0
0.300000 0.300000 0
0.400000 0.300000 0
0.500000 0.300000 0
0.600000 0.300000 0
0.700000 0.300000 0
0.800000 0.300000 0
0.900000 0.300000 0
1.000000 0.300000 0
1.100000 0.300000 0
1.200000 0.300000 0
1.300000 0.300000 0
1.400000 0.300000 0
1.500000 0.300000 0
1.600000 0.300000 0
1.700000 0.300000 0
1.800000 0.300000 0
1.900000 0.300000 0
2.000000 0.300000 0
0.000000 0.400000 0
0.100000 0.400000 0
0.200000 0.400000 0
0.300000 0.400000 0
0.400000 0.400000 0
0.500000 0.400000 0
0.600000 0.400000 0
0.700000 0.400000 0
0.800000 0.400000 0
0.900000 0.400000 0
1.000000 0.400000 0
1.100000 0.400000 0
1.200000 0.400000 0
1.300000 0.400000 0
1.400000 0.400000 0
1.500000 0.400000 0
1.600000 0.400000 0
1.700000 0.400000 0
1.800000 0.400000 0
1.900000 0.400000 0
2.000000 0.400000 0
0.000000 0.500000 0
0.100000 0.500000 0
0.200000 0.500000 0
0.300000 0.500000 0
0.400000 0.500000 0
0.500000 0.500000 0
0.600000 0.500000 0
0.700000 0.500000 0
0.800000 0.500000 0
0.900000 0.500000 0
1.000000 0.500000 0
1.100000 0.500000 0
1.200000 0.500000 0
1.300000 0.500000 0
1.400000 0.500000 0
1.500000 0.500000 0
1.600000 0.500000 0
1.700000 0.500000 0
1.800000 0.500000 0
1.900000 0.500000 0
2.000000 0.500000 0
0.000000 0.600000 0
0.100000 0.600000 0
0.200000 0.600000 0
0.300000 0.600000 0
0.400000 0.600000 0
0.500000 0.600000 0
0.600000 0.600000 0
0.700000 0.600000 0
0.800000 0.600000 0
0.900000 0.600000 0
1.000000 0.600000 0
1.100000 0.600000 0
1.200000 0.600000 0
1.300000 0.600000 0
1.400000 0.600000 0
1.500000 0.600000 0
1.600000 0.600000 0
1.700000 0.600000 0
1.800000 0.600000 0
1.900000 0.600000 0
2.000000 0.600000 0
0.000000 0.700000 0
0.100000 0.700000 0
0.200000 0.700000 0
0.300000 0.700000 0
0.400000 0.700000 0
0.500000 0.700000 0
0.600000 0.700000 0
0.700000 0.700000 0
0.800000 0.700000 0
0.900000 0.700000 0
1.000000 0.700000 0
1.100000 0.700000 0
1.200000 0.700000 0
1.300000 0.700000 0
1.400000 0.700000 0
1.500000 0.700000 0
1.600000 0.700000 0
1.700000 0.700000 0
1.800000 0.700000 0
1.900000 0.700000 0
2.000000 0.700000 0
0.000000 0.800000 0
0.100000 0.800000 0
0.200000 0.800000 0
0.300000 0.800000 0
0.400000 0.800000 0
0.500000 0.800000 0
0.600000 0.800000 0
0.700000 0.800000 0
0.800000 0.800000 0
0.900000 0.800000 0
1.000000 0.800000 0
1.100000 0.800000 0
1.200000 0.800000 0
1.300000 0.800000 0
1.400000 0.800000 0
1.500000 0.800000 0
1.600000 0.800000 0
1.700000 0.800000 0
1.800000 0.800000 0
1.900000 0.800000 0
2.000000 0.800000 0
0.000000 0.900000 0
0.100000 0.900000 0
0.200000 0.900000 0
0.300000 0.900000 0
0.400000 0.900000 0
0.500000 0.900000 0
0.600000 0.900000 0
0.700000 0.900000 0
0.800000 0.900000 0
0.900000 0.900000 0
1.000000 0.900000 0
1.100000 0.900000 0
1.200000 0.900000 0
1.300000 0.900000 0
1.400000 0.900000 0
1.500000 0.900000 0
1.600000 0.900000 0
1.700000 0.900000 0
1.800000 0.900000 0
1.900000 0.900000 0
2.000000 0.900000 0
0.000000 1.000000 0
0.100000 1.000000 0
0.200000 1.000000 0
0.300000 1.000000 0
0.400000 1.000000 0
0.500000 1.000000 0
0.600000 1.000000 0
0.700000 1.000000 0
0.800000 1.000000 0
0.900000 1.000000 0
1.000000 1.000000 0
1.100000 1.000000 0
1.200000 1.000000 0
1.300000 1.000000 0
1.400000 1.000000 0
1.500000 1.000000 0
1.600000 1.000000 0
1.700000 1.000000 0
1.800000 1.000000 0
1.900000 1.000000 0
2.000000 1.000000 0
0.000000 1.100000 0
0.100000 1.100000 0
0.200000 1.100000 0
0.300000 1.100000 0
0.400000 1.100000 0
0.500000 1.100000 0
0.600000 1.100000 0
0.700000 1.100000 0
0.800000 1.100000 0
0.900000 1.100000 0
1.000000 1.100000 0
1.100000 1.100000 0
1.200000 1.100000 0
1.300000 1.100000 0
1.400000 1.100000 0
1.500000 1.100000 0
1.600000 1.100000 0
1.700000 1.100000 0
1.800000 1.100000 0
1.900000 1.100000 0
2.000000 1.100000 0
0.000000 1.200000 0
0.100000 1.200000 0
0.200000 1.200000 0
0.300000 1.200000 0
0.400000 1.200000 0
0.500000 1.200000 0
0.600000 1.200000 0
0.700000 1.200000 0
0.800000 1.200000 0
0.900000 1.200000 0
1.000000 1.200000 0
1.100000 1.200000 0
1.200000 1.200000 0
1.300000 1.200000 0
1.400000 1.200000 0
1.500000 1.200000 0
1.600000 1.200000 0
1.700000 1.200000 0
1.800000 1.200000 0
1.900000 1.200000 0
2.000000 1.200000 0
0.000000 1.300000 0
0.100000 1.300000 0
0.200000 1.300000 0
0.300000 1.300000 0
0.400000 1.300000 0
0.500000 1.300000 0
0.600000 1.300000 0
0.700000 1.300000 0
0.800000 1.300000 0
0.900000 1.300000 0
1.000000 1.300000 0
1.100000 1.300000 0
1.200000 1.300000 0
1.300000 1.300000 0
1.400000 1.300000 0
1.500000 1.300000 0
1.600000 1.300000 0
1.700000 1.300000 0
1.800000 1.300000 0
1.900000 1.300000 0
2.000000 1.300000 0
0.000000 1.400000 0
0.100000 1.400000 0
0.200000 1.400000 0
0.300000 1.400000 0
0.400000 1.400000 0
0.500000 1.400000 0
0.600000 1.400000 0
0.700000 1.400000 0
0.800000 1.400000 0
0.900000 1.400000 0
1.000000 1.400000 0
1.100000 1.400000 0
1.200000 1.400000 0
1.300000 1.400000 0
1.400000 1.400000 0
1.500000 1.400000 0
1.600000 1.400000 0
1.700000 1.400000 0
1.800000 1.400000 0
1.900000 1.400000 0
2.000000 1.400000 0
0.000000 1.500000 0
0.100000 1.500000 0
0.200000 1.500000 0
0.300000 1.500000 0
0.400000 1.500000 0
0.500000 1.500000 0
0.600000 1.500000 0
0.700000 1.500000 0
0.800000 1.500000 0
0.900000 1.500000 0
1.000000 1.500000 0
1.100000 1.500000 0
1.200000 1.500000 0
1.300000 1.500000 0
1.400000 1.500000 0
1.500000 1.500000 0
1.600000 1.500000 0
1.700000 1.500000 0
1.800000 1.500000 0
1.900000 1.500000 0
2.000000 1.500000 0
0.000000 1.600000 0
0.100000 1.600000 0
0.200000 1.600000 0
0.300000 1.600000 0
0.400000 1.600000 0
0.500000 1.600000 0
0.600000 1.600000 0
0.700000 1.600000 0
0.800000 1.600000 0
0.900000 1.600000 0
1.000000 1.600000 0
1.100000 1.600000 0
1.200000 1.600000 0
1.300000 1.600000 0
1.400000 1.600000 0
1.500000 1.600000 0
1.600000 1.600000 0
1.700000 1.600000 0
1.800000 1.600000 0
1.900000 1.600000 0
2.000000 1.600000 0
0.000000 1.700000 0
0.100000 1.700000 0
0.200000 1.700000 0
0.300000 1.700000 0
0.400000 1.700000 0
0.500000 1.700000 0
0.600000 1.700000 0
0.700000 1.700000 0
0.800000 1.700000 0
0.900000 1.700000 0
1.000000 1.700000 0
1.100000 1.700000 0
1.200000 1.700000 0
1.300000 1.700000 0
1.400000 1.700000 0
1.500000 1.700000 0
1.600000 1.700000 0
1.700000 1.700000 0
1.800000 1.700000 0
1.900000 1.700000 0
2.000000 1.700000 0
0.000000 1.800000 0
0.100000 1.800000 0
0.200000 1.800000 0
0.300000 1.800000 0
0.400000 1.800000 0
0.500000 1.800000 0
0.600000 1.800000 0
0.700000 1.800000 0
0.800000 1.800000 0
0.900000 1.800000 0
1.000000 1.800000 0
1.100000 1.800000 0
1.200000 1.800000 0
1.300000 1.800000 0
1.400000 1.800000 0
1.500000 1.800000 0
1.600000 1.800000 0
1.700000 1.800000 0
1.800000 1.800000 0
1.900000 1.800000 0
2.000000 1.800000 0
0.000000 1.900000 0
0.100000 1.900000 0
0.200000 1.900000 0
0.300000 1.900000 0
0.400000 1.900000 0
0.500000 1.900000 0
0.600000 1.900000 0
0.700000 1.900000 0
0.800000 1.900000 0
0.900000 1.900000 0
1.000000 1.900000 0
1.100000 1.900000 0
1.200000 1.900000 0
1.300000 1.900000 0
1.400000 1.900000 0
1.500000 1.900000 0
1.600000 1.900000 0
1.700000 1.900000 0
1.800000 1.900000 0
1.900000 1.900000 0
2.000000 1.900000 0
0.000000 2.000000 0
0.100000 2.000000 0
0.200000 2.000000 0
0.300000 2.000000 0
0.400000 2.000000 0
0.500000 2.000000 0
0.600000 2.000000 0
0.700000 2.000000 0
0.800000 2.000000 0
0.900000 2.000000 0
1.000000 2.000000 0
1.100000 2.000000 0
1.200000 2.000000 0
1.300000 2.000000 0
1.400000 2.000000 0
1.500000 2.000000 0
1.600000 2.000000 0
1.700000 2.000000 0
1.800000 2.000000 0
1.900000 2.000000 0
2.000000 2.000000 0
POINT_DATA 441 

VECTORS velocity float
0.000000 0.000000 0
-0.000006 0.000000 0
-0.000012 0.000000 0
-0.000007 0.000000 0
0.000000 0.000000 0
0.000005 0.000000 0
0.000006 0.000000 0
0.000004 0.000000 0
0.000002 0.000000 0
-0.000000 0.000000 0
-0.000001 0.000000 0
-0.000002 0.000000 0
-0.000002 0.000000 0
-0.000001 0.000000 0
-0.000000 0.000000 0
0.000000 0.000000 0
0.000000 0.000000 0
0.000000 0.000000 0
0.000000 0.000000 0
0.000000 0.000000 0
-0.000000 0.000000 0
0.000000 -0.000013 0
-0.000004 -0.000012 0
-0.000006 -0.000009 0
-0.000003 0.000002 0
0.000001 0.000010 0
0.000003 0.000013 0
0.000004 0.000010 0
0.000003 0.000006 0
0.000001 0.000001 0
-0.000001 -0.000002 0
-0.000002 -0.000004 0
-0.000003 -0.000005 0
-0.000003 -0.000004 0
-0.000002 -0.000002 0
-0.000002 -0.000000 0
-0.000002 0.000001 0
-0.000002 0.000001 0
-0.000002 0.000001 0
-0.000002 0.000001 0
-0.000002 0.000000 0
-0.000002 0.000000 0
0.000000 -0.000008 0
-0.000001 -0.000005 0
0.000003 0.000004 0
0.000004 0.000008 0
0.000002 0.000007 0
0.000001 0.000004 0
-0.000000 0.000000 0
-0.000001 -0.000003 0
-0.000002 -0.000005 0
-0.000002 -0.000005 0
-0.000002 -0.000003 0
-0.000001 -0.000001 0
-0.000001 0.000001 0
-0.000001 0.000002 0
-0.000001 0.000002 0
-0.000002 0.000002 0
-0.000002 0.000001 0
-0.000002 0.000000 0
-0.000002 -0.000000 0
-0.000002 -0.000000 0
-0.000002 -0.000000 0
0.000000 0.000004 0
0.000006 0.000003 0
0.000006 0.000004 0
0.000003 0.000002 0
-0.000000 -0.000002 0
-0.000002 -0.000004 0
-0.000002 -0.000005 0
-0.000002 -0.000004 0
-0.000001 -0.000002 0
0.000000 0.000001 0
0.000000 0.000003 0
0.000000 0.000004 0
-0.000001 0.000004 0
-0.000002 0.000002 0
-0.000002 0.000001 0
-0.000003 -0.000000 0
-0.000002 -0.000001 0
-0.000002 -0.000001 0
-0.000002 -0.000001 0
-0.000002 -0.000000 0
-0.000002 -0.000000 0
0.000000 0.000004 0
0.000006 0.000002 0
0.000003 -0.000002 0
-0.000000 -0.000005 0
-0.000002 -0.000006 0
-0.000002 -0.000004 0
-0.000000 -0.000001 0
0.000001 0.000003 0
0.000002 0.000005 0
0.000001 0.000006 0
0.000000 0.000005 0
-0.000001 0.000003 0
-0.000002 0.000001 0
-0.000003 -0.000001 0
-0.000003 -0.000001 0
-0.000003 -0.000001 0
-0.000002 -0.000001 0
-0.000002 -0.000000 0
-0.000002 -0.000000 0
-0.000002 -0.000000 0
-0.000002 -0.000000 0
0.000000 0.000000 0
0.000002 -0.000002 0
0.000000 -0.000005 0
0.000000 -0.000005 0
0.000000 -0.000002 0
0.000002 0.000002 0
0.000003 0.000005 0
0.000003 0.000007 0
0.000002 0.000006 0
-0.000000 0.000004 0
-0.000002 0.000001 0
-0.000003 -0.000000 0
-0.000003 -0.000001 0
-0.000003 -0.000001 0
-0.000003 -0.000000 0
-0.000002 -0.000000 0
-0.000002 0.000000 0
-0.000002 -0.000000 0
-0.000002 -0.000000 0
-0.000002 -0.000000 0
-0.000002 -0.000000 0
0.000000 -0.000002 0
-0.000001 -0.000004 0
0.000001 -0.000003 0
0.000003 -0.000000 0
0.000004 0.000003 0
0.000004 0.000004 0
0.000003 0.000004 0
0.000002 0.000003 0
0.000000 0.000002 0
-0.000001 0.000001 0
-0.000003 0.000001 0
-0.000003 0.000002 0
-0.000003 0.000002 0
-0.000003 0.000001 0
-0.000003 0.000001 0
-0.000003 0.000000 0
-0.000002 -0.000000 0
-0.000002 -0.000001 0
-0.000002 -0.000001 0
-0.000002 -0.000000 0
-0.000002 -0.000000 0
0.000000 -0.000000 0
0.000000 -0.000002 0
0.000003 0.000000 0
0.000004 0.000001 0
0.000004 -0.000000 0
0.000003 -0.000002 0
0.000002 -0.000002 0
0.000002 0.000000 0
0.000001 0.000003 0
-0.000000 0.000006 0
-0.000002 0.000006 0
-0.000003 0.000005 0
-0.000004 0.000003 0
-0.000004 0.000001 0
-0.000003 -0.000001 0
-0.000003 -0.000001 0
-0.000002 -0.000001 0
-0.000002 -0.000001 0
-0.000002 -0.000001 0
-0.000001 -0.000001 0
-0.000001 -0.000000 0
0.000000 0.000002 0
0.000001 -0.000001 0
0.000003 -0.000002 0
0.000003 -0.000004 0
0.000002 -0.000006 0
0.000002 -0.000005 0
0.000003 -0.000001 0
0.000004 0.000004 0
0.000003 0.000009 0
0.000000 0.000011 0
-0.000002 0.000009 0
-0.000004 0.000005 0
-0.000005 0.000001 0
-0.000004 -0.000001 0
-0.000003 -0.000002 0
-0.000003 -0.000002 0
-0.000002 -0.000002 0
-0.000002 -0.000001 0
-0.000001 -0.000001 0
-0.000001 -0.000001 0
-0.000001 -0.000000 0
0.000000 0.000001 0
-0.000000 -0.000003 0
0.000001 -0.000005 0
0.000001 -0.000006 0
0.000002 -0.000005 0
0.000003 -0.000002 0
0.000004 0.000002 0
0.000004 0.000007 0
0.000003 0.000011 0
-0.000000 0.000012 0
-0.000003 0.000010 0
-0.000005 0.000005 0
-0.000005 0.000000 0
-0.000004 -0.000002 0
-0.000003 -0.000003 0
-0.000002 -0.000002 0
-0.000001 -0.000002 0
-0.000001 -0.000001 0
-0.000001 -0.000001 0
-0.000001 -0.000001 0
-0.000001 -0.000000 0
0.000000 -0.000001 0
-0.000002 -0.000005 0
0.000000 -0.000005 0
0.000001 -0.000004 0
0.000003 -0.000003 0
0.000003 -0.000001 0
0.000003 0.000001 0
0.000002 0.000006 0
0.000001 0.000011 0
-0.000001 0.000013 0
-0.000002 0.000011 0
-0.000003 0.000006 0
-0.000002 0.000001 0
-0.000002 -0.000002 0
-0.000001 -0.000003 0
-0.000001 -0.000003 0
-0.000001 -0.000002 0
-0.000001 -0.000002 0
-0.000000 -0.000001 0
-0.000000 -0.000001 0
-0.000000 -0.000000 0
0.000000 -0.000000 0
-0.000001 -0.000004 0
0.000000 -0.000003 0
0.000001 -0.000003 0
0.000001 -0.000004 0
0.000000 -0.000004 0
-0.000001 -0.000001 0
-0.000001 0.000005 0
-0.000001 0.000012 0
-0.000000 0.000015 0
0.000000 0.000013 0
0.000000 0.000007 0
0.000000 0.000001 0
0.000000 -0.000002 0
0.000000 -0.000003 0
0.000000 -0.000003 0
0.000000 -0.000003 0
0.000000 -0.000002 0
0.000000 -0.000001 0
0.000000 -0.000001 0
0.000000 -0.000000 0
0.000000 0.000001 0
-0.000000 -0.000003 0
-0.000000 -0.000004 0
-0.000001 -0.000005 0
-0.000001 -0.000006 0
-0.000002 -0.000004 0
-0.000003 -0.000001 0
-0.000003 0.000006 0
-0.000002 0.000012 0
0.000000 0.000015 0
0.000002 0.000012 0
0.000003 0.000006 0
0.000003 0.000001 0
0.000002 -0.000002 0
0.000002 -0.000003 0
0.000001 -0.000003 0
0.000001 -0.000002 0
0.000001 -0.000002 0
0.000001 -0.000001 0
0.000001 -0.000001 0
0.000001 -0.000000 0
0.000000 0.000000 0
-0.000001 -0.000003 0
-0.000002 -0.000004 0
-0.000002 -0.000004 0
-0.000002 -0.000004 0
-0.000003 -0.000002 0
-0.000004 0.000001 0
-0.000004 0.000006 0
-0.000003 0.000010 0
0.000000 0.000012 0
0.000003 0.000010 0
0.000004 0.000005 0
0.000005 0.000001 0
0.000004 -0.000001 0
0.000003 -0.000002 0
0.000002 -0.000002 0
0.000002 -0.000002 0
0.000001 -0.000002 0
0.000001 -0.000001 0
0.000001 -0.000001 0
0.000001 -0.000000 0
0.000000 -0.000001 0
-0.000002 -0.000003 0
-0.000002 -0.000003 0
-0.000002 -0.000002 0
-0.000002 -0.000002 0
-0.000003 -0.000001 0
-0.000004 0.000001 0
-0.000004 0.000004 0
-0.000003 0.000007 0
0.000000 0.000008 0
0.000003 0.000007 0
0.000005 0.000004 0
0.000005 0.000002 0
0.000005 -0.000000 0
0.000004 -0.000001 0
0.000003 -0.000002 0
0.000002 -0.000002 0
0.000002 -0.000001 0
0.000002 -0.000001 0
0.000002 -0.000001 0
0.000002 -0.000000 0
0.000000 -0.000000 0
-0.000001 -0.000002 0
-0.000001 -0.000002 0
-0.000002 -0.000002 0
-0.000002 -0.000001 0
-0.000003 -0.000001 0
-0.000004 0.000001 0
-0.000003 0.000003 0
-0.000002 0.000005 0
0.000000 0.000006 0
0.000003 0.000005 0
0.000004 0.000004 0
0.000005 0.000002 0
0.000004 0.000000 0
0.000004 -0.000001 0
0.000003 -0.000001 0
0.000003 -0.000001 0
0.000002 -0.000001 0
0.000002 -0.000001 0
0.000002 -0.000000 0
0.000002 -0.000000 0
0.000000 0.000000 0
-0.000001 -0.000001 0
-0.000001 -0.000001 0
-0.000002 -0.000001 0
-0.000002 -0.000001 0
-0.000003 -0.000001 0
-0.000003 0.000001 0
-0.000002 0.000002 0
-0.000001 0.000004 0
0.000000 0.000004 0
0.000002 0.000004 0
0.000003 0.000003 0
0.000004 0.000001 0
0.000004 0.000000 0
0.000003 -0.000000 0
0.000003 -0.000001 0
0.000003 -0.000001 0
0.000002 -0.000001 0
0.000002 -0.000001 0
0.000002 -0.000000 0
0.000002 -0.000000 0
0.000000 -0.000000 0
-0.000001 -0.000001 0
-0.000001 -0.000001 0
-0.000002 -0.000001 0
-0.000002 -0.000001 0
-0.000002 0.000000 0
-0.000002 0.000001 0
-0.000001 0.000002 0
-0.000001 0.000002 0
0.000000 0.000003 0
0.000002 0.000002 0
0.000003 0.000002 0
0.000003 0.000001 0
0.000003 0.000000 0
0.000003 -0.000000 0
0.000003 -0.000000 0
0.000003 -0.000000 0
0.000002 -0.000000 0
0.000002 -0.000000 0
0.000002 -0.000000 0
0.000002 -0.000000 0
0.000000 -0.000000 0
-0.000000 -0.000001 0
-0.000001 -0.000001 0
-0.000001 -0.000000 0
-0.000002 -0.000000 0
-0.000002 0.000000 0
-0.000001 0.000000 0
-0.000001 0.000001 0
-0.000000 0.000001 0
0.000000 0.000001 0
0.000001 0.000001 0
0.000002 0.000001 0
0.000003 0.000001 0
0.000003 0.000000 0
0.000003 0.000000 0
0.000003 -0.000000 0
0.000003 -0.000000 0
0.000003 -0.000000 0
0.000002 -0.000000 0
0.000002 -0.000000 0
0.000002 -0.000000 0
0.000000 -0.000000 0
-0.000000 -0.000000 0
-0.000001 -0.000000 0
-0.000001 -0.000000 0
-0.000001 -0.000000 0
-0.000001 0.000000 0
-0.000001 0.000000 0
-0.000001 0.000000 0
-0.000000 0.000001 0
0.000001 0.000001 0
0.000001 0.000001 0
0.000002 0.000001 0
0.000002 0.000000 0
0.000003 0.000000 0
0.000003 0.000000 0
0.000003 -0.000000 0
0.000003 -0.000000 0
0.000002 -0.000000 0
0.000002 -0.000000 0
0.000002 -0.000000 0
0.000002 -0.000000 0
0.000000 0.000000 0
0.000000 0.000000 0
-0.000000 0.000000 0
-0.000000 0.000000 0
-0.000000 0.000000 0
-0.000000 0.000000 0
0.000000 0.000000 0
0.000000 0.000000 0
0.000000 0.000000 0
0.000000 0.000000 0
0.000000 0.000000 0
-0.000000 0.000000 0
0.000000 0.000000 0
0.000000 0.000000 0
0.000000 0.000000 0
0.000000 0.000000 0
0.000000 0.000000 0
0.000000 0.000000 0
0.000000 0.000000 0
0.000000 0.000000 0
0.000000 0.000000 0

CELL_DATA 400 
SCALARS pressure float 1 
LOOKUP_TABLE default 
0.242568
0.242592
0.242641
0.242671
0.242670
0.242649
0.242624
0.242607
0.242600
0.242601
0.242606
0.242614
0.242621
0.242625
0.242627
0.242627
0.242625
0.242624
0.242623
0.242623
0.219621
0.219643
0.219639
0.219625
0.219613
0.219606
0.219605
0.219609
0.219614
0.219621
0.219626
0.219629
0.219629
0.219627
0.219624
0.219622
0.219621
0.219621
0.219622
0.219622
0.196654
0.196628
0.196603
0.196595
0.196600
0.196611
0.196622
0.196631
0.196635
0.196635
0.196632
0.196626
0.196621
0.196618
0.196617
0.196619
0.196620
0.196622
0.196622
0.196622
0.173639
0.173609
0.173597
0.173603
0.173617
0.173631
0.173639
0.173640
0.173635
0.173627
0.173620
0.173615
0.173614
0.173616
0.173619
0.173621
0.173623
0.173623
0.173623
0.173623
0.150621
0.150611
0.150613
0.150621
0.150630
0.150635
0.150634
0.150627
0.150619
0.150614
0.150613
0.150616
0.150619
0.150622
0.150624
0.150624
0.150623
0.150623
0.150623
0.150623
0.127621
0.127625
0.127627
0.127627
0.127624
0.127620
0.127615
0.127614
0.127615
0.127619
0.127623
0.127625
0.127625
0.127624
0.127623
0.127622
0.127622
0.127622
0.127622
0.127622
0.104630
0.104633
0.104625
0.104615
0.104609
0.104609
0.104614
0.104621
0.104627
0.104629
0.104628
0.104625
0.104622
0.104620
0.104620
0.104620
0.104621
0.104622
0.104622
0.104622
0.081631
0.081626
0.081616
0.081609
0.081611
0.081618
0.081626
0.081630
0.081629
0.081626
0.081622
0.081620
0.081619
0.081620
0.081621
0.081622
0.081622
0.081623
0.081623
0.081623
0.058622
0.058620
0.058618
0.058620
0.058623
0.058626
0.058626
0.058624
0.058621
0.058619
0.058619
0.058620
0.058621
0.058622
0.058623
0.058623
0.058623
0.058623
0.058623
0.058623
0.035619
0.035625
0.035628
0.035627
0.035623
0.035619
0.035617
0.035617
0.035619
0.035621
0.035623
0.035624
0.035624
0.035623
0.035623
0.035622
0.035622
0.035622
0.035622
0.035622
0.012623
0.012629
0.012628
0.012622
0.012617
0.012615
0.012617
0.012621
0.012624
0.012625
0.012625
0.012624
0.012623
0.012622
0.012622
0.012622
0.012622
0.012622
0.012622
0.012623
-0.010375
-0.010375
-0.010377
-0.010380
-0.010381
-0.010380
-0.010377
-0.010375
-0.010375
-0.010375
-0.010376
-0.010377
-0.010378
-0.010378
-0.010377
-0.010377
-0.010377
-0.010377
-0.010377
-0.010377
-0.033379
-0.033378
-0.033376
-0.033375
-0.033375
-0.033376
-0.033376
-0.033377
-0.033377
-0.033377
-0.033377
-0.033377
-0.033376
-0.033377
-0.033377
-0.033377
-0.033377
-0.033377
-0.033377
-0.033377
-0.056381
-0.056376
-0.056373
-0.056373
-0.056375
-0.056378
-0.056379
-0.056379
-0.056377
-0.056376
-0.056376
-0.056375
-0.056376
-0.056376
-0.056377
-0.056377
-0.056377
-0.056377
-0.056377
-0.056377
-0.079379
-0.079375
-0.079374
-0.079375
-0.079377
-0.079378
-0.079378
-0.079377
-0.079376
-0.079375
-0.079375
-0.079376
-0.079376
-0.079376
-0.079377
-0.079377
-0.079377
-0.079377
-0.079377
-0.079377
-0.102377
-0.102376
-0.102376
-0.102376
-0.102376
-0.102376
-0.102376
-0.102376
-0.102376
-0.102376
-0.102376
-0.102376
-0.102376
-0.102376
-0.102377
-0.102377
-0.102377
-0.102377
-0.102377
-0.102377
-0.125378
-0.125377
-0.125376
-0.125375
-0.125374
-0.125375
-0.125376
-0.125377
-0.125377
-0.125376
-0.125376
-0.125376
-0.125376
-0.125376
-0.125376
-0.125377
-0.125377
-0.125377
-0.125377
-0.125377
-0.148378
-0.148377
-0.148376
-0.148375
-0.148375
-0.148376
-0.148376
-0.148377
-0.148377
-0.148376
-0.148376
-0.148376
-0.148376
-0.148376
-0.148377
-0.148377
-0.148377
-0.148377
-0.148377
-0.148377
-0.171377
-0.171377
-0.171376
-0.171376
-0.171375
-0.171376
-0.171376
-0.171376
-0.171376
-0.171376
-0.171376
-0.171376
-0.171376
-0.171376
-0.171377
-0.171377
-0.171377
-0.171377
-0.171377
-0.171377
-0.194376
-0.194377
-0.194377
-0.194376
-0.194375
-0.194375
-0.194376
-0.194376
-0.194376
-0.194376
-0.194376
-0.194376
-0.194376
-0.194376
-0.194377
-0.194377
-0.194377
-0.194377
-0.194377
-0.194377

SCALARS temperature float 1 
LOOKUP_TABLE default 
0.000000
0.000000
0.000000
0.000000
0.000000
0.000000
0.000001
0.000001
0.000001
0.000001
0.000001
0.000001
0.000000
0.000000
0.000000
0.000000
0.000000
0.000000
0.000000
0.000000
0.000000
0.000000
0.000000
0.000000
0.000001
0.000001
0.000002
0.000003
0.000003
0.000004
0.000003
0.000002
0.000001
0.000001
0.000000
0.000000
0.000000
0.000000
0.000000
0.000000
0.000000
0.000000
0.000000
0.000001
0.000002
0.000004
0.000008
0.000011
0.000013
0.000013
0.000011
0.000008
0.000005
0.000003
0.000001
0.000000
0.000000
0.000000
0.000000
0.000000
0.000000
0.000000
0.000001
0.000003
0.000008
0.000016
0.000028
0.000041
0.000049
0.000050
0.000042
0.000030
0.000019
0.000010
0.000004
0.000002
0.000001
0.000000
0.000000
0.000000
0.000000
0.000001
0.000004
0.000011
0.000027
0.000055
0.000094
0.000137
0.000165
0.000167
0.000141
0.000100
0.000060
0.000031
0.000014
0.000005
0.000002
0.000001
0.000000
0.000000
0.000000
0.000003
0.000010
0.000031
0.000077
0.000159
0.000277
0.000405
0.000491
0.000494
0.000412
0.000288
0.000170
0.000086
0.000037
0.000014
0.000005
0.000002
0.000000
0.000000
0.000001
0.000006
0.000025
0.000076
0.000190
0.000400
0.000708
0.001045
0.001274
0.001277
0.001056
0.000725
0.000419
0.000207
0.000089
0.000033
0.000011
0.000003
0.000001
0.000000
0.000001
0.000012
0.000051
0.000158
0.000402
0.000862
0.001553
0.002325
0.002855
0.002856
0.002333
0.001572
0.000889
0.000430
0.000180
0.000067
0.000022
0.000007
0.000002
0.000001
0.000002
0.000021
0.000089
0.000278
0.000718
0.001568
0.002880
0.004382
0.005429
0.005422
0.004376
0.002893
0.001599
0.000756
0.000311
0.000113
0.000037
0.000011
0.000003
0.000001
0.000003
0.000031
0.000130
0.000408
0.001067
0.002366
0.004423
0.006830
0.008530
0.008512
0.006799
0.004420
0.002397
0.001113
0.000451
0.000162
0.000052
0.000016
0.000005
0.000002
0.000003
0.000037
0.000157
0.000495
0.001302
0.002912
0.005494
0.008554
0.010735
0.010709
0.008508
0.005480
0.002942
0.001354
0.000545
0.000195
0.000063
0.000019
0.000006
0.000002
0.000003
0.000038
0.000158
0.000495
0.001297
0.002892
0.005442
0.008460
0.010609
0.010587
0.008422
0.005436
0.002926
0.001350
0.000545
0.000196
0.000063
0.000019
0.000006
0.000002
0.000003
0.000032
0.000131
0.000408
0.001056
0.002324
0.004316
0.006634
0.008270
0.008259
0.006621
0.004328
0.002365
0.001107
0.000453
0.000164
0.000054
0.000016
0.000005
0.000002
0.000002
0.000022
0.000091
0.000280
0.000712
0.001536
0.002795
0.004224
0.005218
0.005218
0.004232
0.002821
0.001577
0.000755
0.000315
0.000116
0.000039
0.000012
0.000004
0.000001
0.000001
0.000013
0.000054
0.000162
0.000404
0.000853
0.001517
0.002252
0.002756
0.002761
0.002268
0.001545
0.000886
0.000436
0.000186
0.000070
0.000024
0.000007
0.000002
0.000001
0.000001
0.000007
0.000027
0.000080
0.000197
0.000406
0.000708
0.001034
0.001255
0.001260
0.001049
0.000729
0.000429
0.000216
0.000095
0.000037
0.000013
0.000004
0.000001
0.000001
0.000000
0.000003
0.000012
0.000035
0.000084
0.000170
0.000291
0.000420
0.000507
0.000510
0.000429
0.000304
0.000183
0.000095
0.000043
0.000017
0.000006
0.000002
0.000001
0.000000
0.000000
0.000001
0.000005
0.000014
0.000033
0.000065
0.000110
0.000157
0.000188
0.000190
0.000162
0.000116
0.000071
0.000038
0.000017
0.000007
0.000003
0.000001
0.000000
0.000000
0.000000
0.000000
0.000002
0.000005
0.000013
0.000025
0.000041
0.000059
0.000070
0.000071
0.000061
0.000045
0.000028
0.000015
0.000007
0.000003
0.000001
0.000000
0.000000
0.000000
0.000000
0.000000
0.000001
0.000003
0.000006
0.000012
0.000020
0.000029
0.000034
0.000035
0.000030
0.000022
0.000014
0.000008
0.000004
0.000002
0.000001
0.000000
0.000000
0.000000


SCALARS Species_1 float 1 
LOOKUP_TABLE default 
0.000015
0.000056
0.000131
0.000271
0.000520
0.000924
0.001528
0.002342
0.003328
0.004377
0.005327
0.005997
0.006247
0.006027
0.005394
0.004495
0.003515
0.002628
0.001968
0.001618
0.000021
0.000077
0.000179
0.000369
0.000702
0.001241
0.002041
0.003114
0.004406
0.005775
0.007006
0.007866
0.008177
0.007877
0.007043
0.005867
0.004588
0.003434
0.002577
0.002123
0.000032
0.000118
0.000272
0.000556
0.001053
0.001853
0.003033
0.004609
0.006496
0.008484
0.010261
0.011490
0.011918
0.011458
0.010231
0.008514
0.006655
0.004982
0.003742
0.003087
0.000049
0.000177
0.000407
0.000830
0.001564
0.002742
0.004471
0.006770
0.009512
0.012386
0.014942
0.016695
0.017284
0.016592
0.014797
0.012303
0.009614
0.007198
0.005411
0.004469
0.000069
0.000252
0.000577
0.001170
0.002198
0.003840
0.006240
0.009421
0.013200
0.017148
0.020643
0.023025
0.023801
0.022823
0.020337
0.016901
0.013205
0.009891
0.007442
0.006153
0.000092
0.000333
0.000760
0.001537
0.002877
0.005011
0.008121
0.012229
0.017095
0.022163
0.026634
0.029664
0.030629
0.029346
0.026136
0.021716
0.016970
0.012720
0.009582
0.007930
0.000113
0.000408
0.000928
0.001871
0.003492
0.006066
0.009805
0.014733
0.020554
0.026603
0.031925
0.035518
0.036644
0.035091
0.031246
0.025964
0.020299
0.015228
0.011486
0.009518
0.000128
0.000462
0.001048
0.002108
0.003924
0.006800
0.010968
0.016448
0.022910
0.029612
0.035497
0.039460
0.040690
0.038956
0.034690
0.028837
0.022561
0.016944
0.012798
0.010618
0.000134
0.000484
0.001095
0.002197
0.004081
0.007057
0.011363
0.017014
0.023667
0.030558
0.036604
0.040670
0.041928
0.040143
0.035759
0.029744
0.023293
0.017517
0.013252
0.011009
0.000130
0.000469
0.001059
0.002121
0.003931
0.006786
0.010909
0.016314
0.022671
0.029251
0.035021
0.038903
0.040109
0.038415
0.034240
0.028506
0.022351
0.016834
0.012758
0.010612
0.000117
0.000421
0.000949
0.001897
0.003510
0.006051
0.009716
0.014517
0.020159
0.025998
0.031120
0.034572
0.035655
0.034169
0.030482
0.025407
0.019949
0.015052
0.011429
0.009520
0.000097
0.000350
0.000789
0.001574
0.002910
0.005011
0.008039
0.012004
0.016662
0.021484
0.025719
0.028581
0.029495
0.028289
0.025265
0.021087
0.016585
0.012538
0.009539
0.007957
0.000075
0.000271
0.000610
0.001215
0.002244
0.003861
0.006191
0.009240
0.012824
0.016537
0.019803
0.022020
0.022742
0.021836
0.019528
0.016325
0.012864
0.009746
0.007431
0.006208
0.000054
0.000195
0.000439
0.000875
0.001614
0.002775
0.004447
0.006636
0.009210
0.011880
0.014234
0.015840
0.016377
0.015745
0.014103
0.011811
0.009327
0.007082
0.005412
0.004528
0.000037
0.000131
0.000295
0.000588
0.001084
0.001863
0.002986
0.004456
0.006187
0.007984
0.009574
0.010664
0.011039
0.010630
0.009537
0.008004
0.006334
0.004822
0.003694
0.003095
0.000023
0.000083
0.000186
0.000370
0.000683
0.001173
0.001880
0.002806
0.003898
0.005034
0.006042
0.006738
0.006985
0.006737
0.006057
0.005094
0.004041
0.003084
0.002368
0.001988
0.000014
0.000049
0.000110
0.000219
0.000405
0.000695
0.001115
0.001665
0.002314
0.002991
0.003594
0.004014
0.004168
0.004027
0.003628
0.003059
0.002433
0.001862
0.001434
0.001205
0.000008
0.000028
0.000062
0.000124
0.000228
0.000393
0.000630
0.000942
0.001310
0.001696
0.002040
0.002282
0.002374
0.002299
0.002076
0.001755
0.001400
0.001074
0.000829
0.000698
0.000004
0.000016
0.000035
0.000070
0.000128
0.000221
0.000355
0.000531
0.000740
0.000959
0.001157
0.001297
0.001352
0.001312
0.001188
0.001007
0.000806
0.000620
0.000480
0.000405
0.000003
0.000010
0.000023
0.000045
0.000084
0.000144
0.000232
0.000348
0.000486
0.000631
0.000763
0.000857
0.000895
0.000871
0.000790
0.000672
0.000539
0.000416
0.000322
0.000272


SCALARS Species_2 float 1 
LOOKUP_TABLE default 
0.000016
0.000048
0.000078
0.000104
0.000123
0.000131
0.000129
0.000117
0.000098
0.000076
0.000055
0.000037
0.000023
0.000014
0.000008
0.000004
0.000002
0.000001
0.000000
0.000000
0.000030
0.000090
0.000146
0.000194
0.000228
0.000243
0.000238
0.000215
0.000180
0.000139
0.000101
0.000068
0.000043
0.000025
0.000014
0.000007
0.000004
0.000002
0.000001
0.000000
0.000066
0.000195
0.000317
0.000420
0.000492
0.000523
0.000511
0.000460
0.000384
0.000297
0.000215
0.000144
0.000091
0.000054
0.000030
0.000016