# vtk DataFile Version 2.0
generated by CFD-lab course output (written by Tobias Neckel) 
ASCII

DATASET STRUCTURED_GRID
DIMENSIONS  21 21 1 
POINTS 441 float

0.000000 0.000000 0
0.100000 0.000000 0
0.200000 0.000000 0
0.300000 0.000000 0
0.400000 0.000000 0
0.500000 0.000000 0
0.600000 0.000000 0
0.700000 0.000000 0
0.800000 0.000000 0
0.900000 0.000000 0
1.000000 0.000000 0
1.100000 0.000000 0
1.200000 0.000000 0
1.300000 0.000000 0
1.400000 0.000000 0
1.500000 0.000000 0
1.600000 0.000000 0
1.700000 0.000000 0
1.800000 0.000000 0
1.900000 0.000000 0
2.000000 0.000000 0
0.000000 0.100000 0
0.100000 0.100000 0
0.200000 0.100000 0
0.300000 0.100000 0
0.400000 0.100000 0
0.500000 0.100000 0
0.600000 0.100000 0
0.700000 0.100000 0
0.800000 0.100000 0
0.900000 0.100000 0
1.000000 0.100000 0
1.100000 0.100000 0
1.200000 0.100000 0
1.300000 0.100000 0
1.400000 0.100000 0
1.500000 0.100000 0
1.600000 0.100000 0
1.700000 0.100000 0
1.800000 0.100000 0
1.900000 0.100000 0
2.000000 0.100000 0
0.000000 0.200000 0
0.100000 0.200000 0
0.200000 0.200000 0
0.300000 0.200000 0
0.400000 0.200000 0
0.500000 0.200000 0
0.600000 0.200000 0
0.700000 0.200000 0
0.800000 0.200000 0
0.900000 0.200000 0
1.000000 0.200000 0
1.100000 0.200000 0
1.200000 0.200000 0
1.300000 0.200000 0
1.400000 0.200000 0
1.500000 0.200000 0
1.600000 0.200000 0
1.700000 0.200000 0
1.800000 0.200000 0
1.900000 0.200000 0
2.000000 0.200000 0
0.000000 0.300000 0
0.100000 0.300000 0
0.200000 0.300000 0
0.300000 0.300000 0
0.400000 0.300000 0
0.500000 0.300000 0
0.600000 0.300000 0
0.700000 0.300000 0
0.800000 0.300000 0
0.900000 0.300000 0
1.000000 0.300000 0
1.100000 0.300000 0
1.200000 0.300000 0
1.300000 0.300000 0
1.400000 0.300000 0
1.500000 0.300000 0
1.600000 0.300000 0
1.700000 0.300000 0
1.800000 0.300000 0
1.900000 0.300000 0
2.000000 0.300000 0
0.000000 0.400000 0
0.100000 0.400000 0
0.200000 0.400000 0
0.300000 0.400000 0
0.400000 0.400000 0
0.500000 0.400000 0
0.600000 0.400000 0
0.700000 0.400000 0
0.800000 0.400000 0
0.900000 0.400000 0
1.000000 0.400000 0
1.100000 0.400000 0
1.200000 0.400000 0
1.300000 0.400000 0
1.400000 0.400000 0
1.500000 0.400000 0
1.600000 0.400000 0
1.700000 0.400000 0
1.800000 0.400000 0
1.900000 0.400000 0
2.000000 0.400000 0
0.000000 0.500000 0
0.100000 0.500000 0
0.200000 0.500000 0
0.300000 0.500000 0
0.400000 0.500000 0
0.500000 0.500000 0
0.600000 0.500000 0
0.700000 0.500000 0
0.800000 0.500000 0
0.900000 0.500000 0
1.000000 0.500000 0
1.100000 0.500000 0
1.200000 0.500000 0
1.300000 0.500000 0
1.400000 0.500000 0
1.500000 0.500000 0
1.600000 0.500000 0
1.700000 0.500000 0
1.800000 0.500000 0
1.900000 0.500000 0
2.000000 0.500000 0
0.000000 0.600000 0
0.100000 0.600000 0
0.200000 0.600000 0
0.300000 0.600000 0
0.400000 0.600000 0
0.500000 0.600000 0
0.600000 0.600000 0
0.700000 0.600000 0
0.800000 0.600000 0
0.900000 0.600000 0
1.000000 0.600000 0
1.100000 0.600000 0
1.200000 0.600000 0
1.300000 0.600000 0
1.400000 0.600000 0
1.500000 0.600000 0
1.600000 0.600000 0
1.700000 0.600000 0
1.800000 0.600000 0
1.900000 0.600000 0
2.000000 0.600000 0
0.000000 0.700000 0
0.100000 0.700000 0
0.200000 0.700000 0
0.300000 0.700000 0
0.400000 0.700000 0
0.500000 0.700000 0
0.600000 0.700000 0
0.700000 0.700000 0
0.800000 0.700000 0
0.900000 0.700000 0
1.000000 0.700000 0
1.100000 0.700000 0
1.200000 0.700000 0
1.300000 0.700000 0
1.400000 0.700000 0
1.500000 0.700000 0
1.600000 0.700000 0
1.700000 0.700000 0
1.800000 0.700000 0
1.900000 0.700000 0
2.000000 0.700000 0
0.000000 0.800000 0
0.100000 0.800000 0
0.200000 0.800000 0
0.300000 0.800000 0
0.400000 0.800000 0
0.500000 0.800000 0
0.600000 0.800000 0
0.700000 0.800000 0
0.800000 0.800000 0
0.900000 0.800000 0
1.000000 0.800000 0
1.100000 0.800000 0
1.200000 0.800000 0
1.300000 0.800000 0
1.400000 0.800000 0
1.500000 0.800000 0
1.600000 0.800000 0
1.700000 0.800000 0
1.800000 0.800000 0
1.900000 0.800000 0
2.000000 0.800000 0
0.000000 0.900000 0
0.100000 0.900000 0
0.200000 0.900000 0
0.300000 0.900000 0
0.400000 0.900000 0
0.500000 0.900000 0
0.600000 0.900000 0
0.700000 0.900000 0
0.800000 0.900000 0
0.900000 0.900000 0
1.000000 0.900000 0
1.100000 0.900000 0
1.200000 0.900000 0
1.300000 0.900000 0
1.400000 0.900000 0
1.500000 0.900000 0
1.600000 0.900000 0
1.700000 0.900000 0
1.800000 0.900000 0
1.900000 0.900000 0
2.000000 0.900000 0
0.000000 1.000000 0
0.100000 1.000000 0
0.200000 1.000000 0
0.300000 1.000000 0
0.400000 1.000000 0
0.500000 1.000000 0
0.600000 1.000000 0
0.700000 1.000000 0
0.800000 1.000000 0
0.900000 1.000000 0
1.000000 1.000000 0
1.100000 1.000000 0
1.200000 1.000000 0
1.300000 1.000000 0
1.400000 1.000000 0
1.500000 1.000000 0
1.600000 1.000000 0
1.700000 1.000000 0
1.800000 1.000000 0
1.900000 1.000000 0
2.000000 1.000000 0
0.000000 1.100000 0
0.100000 1.100000 0
0.200000 1.100000 0
0.300000 1.100000 0
0.400000 1.100000 0
0.500000 1.100000 0
0.600000 1.100000 0
0.700000 1.100000 0
0.800000 1.100000 0
0.900000 1.100000 0
1.000000 1.100000 0
1.100000 1.100000 0
1.200000 1.100000 0
1.300000 1.100000 0
1.400000 1.100000 0
1.500000 1.100000 0
1.600000 1.100000 0
1.700000 1.100000 0
1.800000 1.100000 0
1.900000 1.100000 0
2.000000 1.100000 0
0.000000 1.200000 0
0.100000 1.200000 0
0.200000 1.200000 0
0.300000 1.200000 0
0.400000 1.200000 0
0.500000 1.200000 0
0.600000 1.200000 0
0.700000 1.200000 0
0.800000 1.200000 0
0.900000 1.200000 0
1.000000 1.200000 0
1.100000 1.200000 0
1.200000 1.200000 0
1.300000 1.200000 0
1.400000 1.200000 0
1.500000 1.200000 0
1.600000 1.200000 0
1.700000 1.200000 0
1.800000 1.200000 0
1.900000 1.200000 0
2.000000 1.200000 0
0.000000 1.300000 0
0.100000 1.300000 0
0.200000 1.300000 0
0.300000 1.300000 0
0.400000 1.300000 0
0.500000 1.300000 0
0.600000 1.300000 0
0.700000 1.300000 0
0.800000 1.300000 0
0.900000 1.300000 0
1.000000 1.300000 0
1.100000 1.300000 0
1.200000 1.300000 0
1.300000 1.300000 0
1.400000 1.300000 0
1.500000 1.300000 0
1.600000 1.300000 0
1.700000 1.300000 0
1.800000 1.300000 0
1.900000 1.300000 0
2.000000 1.300000 0
0.000000 1.400000 0
0.100000 1.400000 0
0.200000 1.400000 0
0.300000 1.400000 0
0.400000 1.400000 0
0.500000 1.400000 0
0.600000 1.400000 0
0.700000 1.400000 0
0.800000 1.400000 0
0.900000 1.400000 0
1.000000 1.400000 0
1.100000 1.400000 0
1.200000 1.400000 0
1.300000 1.400000 0
1.400000 1.400000 0
1.500000 1.400000 0
1.600000 1.400000 0
1.700000 1.400000 0
1.800000 1.400000 0
1.900000 1.400000 0
2.000000 1.400000 0
0.000000 1.500000 0
0.100000 1.500000 0
0.200000 1.500000 0
0.300000 1.500000 0
0.400000 1.500000 0
0.500000 1.500000 0
0.600000 1.500000 0
0.700000 1.500000 0
0.800000 1.500000 0
0.900000 1.500000 0
1.000000 1.500000 0
1.100000 1.500000 0
1.200000 1.500000 0
1.300000 1.500000 0
1.400000 1.500000 0
1.500000 1.500000 0
1.600000 1.500000 0
1.700000 1.500000 0
1.800000 1.500000 0
1.900000 1.500000 0
2.000000 1.500000 0
0.000000 1.600000 0
0.100000 1.600000 0
0.200000 1.600000 0
0.300000 1.600000 0
0.400000 1.600000 0
0.500000 1.600000 0
0.600000 1.600000 0
0.700000 1.600000 0
0.800000 1.600000 0
0.900000 1.600000 0
1.000000 1.600000 0
1.100000 1.600000 0
1.200000 1.600000 0
1.300000 1.600000 0
1.400000 1.600000 0
1.500000 1.600000 0
1.600000 1.600000 0
1.700000 1.600000 0
1.800000 1.600000 0
1.900000 1.600000 0
2.000000 1.600000 0
0.000000 1.700000 0
0.100000 1.700000 0
0.200000 1.700000 0
0.300000 1.700000 0
0.400000 1.700000 0
0.500000 1.700000 0
0.600000 1.700000 0
0.700000 1.700000 0
0.800000 1.700000 0
0.900000 1.700000 0
1.000000 1.700000 0
1.100000 1.700000 0
1.200000 1.700000 0
1.300000 1.700000 0
1.400000 1.700000 0
1.500000 1.700000 0
1.600000 1.700000 0
1.700000 1.700000 0
1.800000 1.700000 0
1.900000 1.700000 0
2.000000 1.700000 0
0.000000 1.800000 0
0.100000 1.800000 0
0.200000 1.800000 0
0.300000 1.800000 0
0.400000 1.800000 0
0.500000 1.800000 0
0.600000 1.800000 0
0.700000 1.800000 0
0.800000 1.800000 0
0.900000 1.800000 0
1.000000 1.800000 0
1.100000 1.800000 0
1.200000 1.800000 0
1.300000 1.800000 0
1.400000 1.800000 0
1.500000 1.800000 0
1.600000 1.800000 0
1.700000 1.800000 0
1.800000 1.800000 0
1.900000 1.800000 0
2.000000 1.800000 0
0.000000 1.900000 0
0.100000 1.900000 0
0.200000 1.900000 0
0.300000 1.900000 0
0.400000 1.900000 0
0.500000 1.900000 0
0.600000 1.900000 0
0.700000 1.900000 0
0.800000 1.900000 0
0.900000 1.900000 0
1.000000 1.900000 0
1.100000 1.900000 0
1.200000 1.900000 0
1.300000 1.900000 0
1.400000 1.900000 0
1.500000 1.900000 0
1.600000 1.900000 0
1.700000 1.900000 0
1.800000 1.900000 0
1.900000 1.900000 0
2.000000 1.900000 0
0.000000 2.000000 0
0.100000 2.000000 0
0.200000 2.000000 0
0.300000 2.000000 0
0.400000 2.000000 0
0.500000 2.000000 0
0.600000 2.000000 0
0.700000 2.000000 0
0.800000 2.000000 0
0.900000 2.000000 0
1.000000 2.000000 0
1.100000 2.000000 0
1.200000 2.000000 0
1.300000 2.000000 0
1.400000 2.000000 0
1.500000 2.000000 0
1.600000 2.000000 0
1.700000 2.000000 0
1.800000 2.000000 0
1.900000 2.000000 0
2.000000 2.000000 0
POINT_DATA 441 

VECTORS velocity float
0.000000 0.000000 0
0.000008 0.000000 0
-0.000003 0.000000 0
-0.000009 0.000000 0
-0.000008 0.000000 0
-0.000002 0.000000 0
0.000003 0.000000 0
0.000006 0.000000 0
0.000005 0.000000 0
0.000003 0.000000 0
-0.000000 0.000000 0
-0.000002 0.000000 0
-0.000002 0.000000 0
-0.000002 0.000000 0
-0.000001 0.000000 0
-0.000000 0.000000 0
0.000000 0.000000 0
0.000000 0.000000 0
0.000000 0.000000 0
-0.000000 0.000000 0
-0.000000 0.000000 0
0.000000 0.000003 0
0.000019 -0.000019 0
0.000032 -0.000028 0
0.000045 -0.000022 0
0.000056 -0.000006 0
0.000060 0.000011 0
0.000054 0.000024 0
0.000038 0.000030 0
0.000013 0.000030 0
-0.000017 0.000027 0
-0.000049 0.000023 0
-0.000078 0.000019 0
-0.000102 0.000016 0
-0.000121 0.000013 0
-0.000133 0.000009 0
-0.000140 0.000006 0
-0.000144 0.000003 0
-0.000145 0.000001 0
-0.000144 -0.000000 0
-0.000143 -0.000000 0
-0.000143 -0.000000 0
0.000000 -0.000009 0
0.000014 -0.000043 0
0.000038 -0.000036 0
0.000058 -0.000018 0
0.000069 0.000001 0
0.000069 0.000016 0
0.000058 0.000029 0
0.000037 0.000039 0
0.000010 0.000047 0
-0.000023 0.000053 0
-0.000056 0.000055 0
-0.000087 0.000051 0
-0.000114 0.000044 0
-0.000134 0.000033 0
-0.000147 0.000022 0
-0.000154 0.000012 0
-0.000158 0.000005 0
-0.000158 0.000000 0
-0.000157 -0.000001 0
-0.000156 -0.000001 0
-0.000156 -0.000001 0
0.000000 -0.000002 0
0.000020 -0.000055 0
0.000047 -0.000046 0
0.000066 -0.000031 0
0.000074 -0.000014 0
0.000073 0.000007 0
0.000063 0.000033 0
0.000043 0.000059 0
0.000015 0.000081 0
-0.000020 0.000094 0
-0.000057 0.000095 0
-0.000092 0.000085 0
-0.000120 0.000068 0
-0.000140 0.000049 0
-0.000152 0.000030 0
-0.000158 0.000015 0
-0.000159 0.000005 0
-0.000157 -0.000001 0
-0.000155 -0.000003 0
-0.000154 -0.000002 0
-0.000153 -0.000001 0
0.000000 0.000005 0
0.000026 -0.000074 0
0.000051 -0.000072 0
0.000070 -0.000056 0
0.000082 -0.000029 0
0.000086 0.000008 0
0.000078 0.000051 0
0.000058 0.000092 0
0.000025 0.000123 0
-0.000017 0.000137 0
-0.000061 0.000134 0
-0.000100 0.000116 0
-0.000130 0.000090 0
-0.000149 0.000062 0
-0.000158 0.000036 0
-0.000160 0.000017 0
-0.000158 0.000004 0
-0.000154 -0.000003 0
-0.000151 -0.000005 0
-0.000149 -0.000003 0
-0.000148 -0.000001 0
0.000000 0.000002 0
0.000025 -0.000104 0
0.000053 -0.000102 0
0.000078 -0.000077 0
0.000097 -0.000036 0
0.000105 0.000016 0
0.000098 0.000072 0
0.000075 0.000124 0
0.000035 0.000163 0
-0.000016 0.000181 0
-0.000067 0.000175 0
-0.000111 0.000150 0
-0.000141 0.000113 0
-0.000158 0.000074 0
-0.000163 0.000041 0
-0.000161 0.000016 0
-0.000156 0.000000 0
-0.000149 -0.000007 0
-0.000144 -0.000008 0
-0.000141 -0.000004 0
-0.000140 -0.000002 0
0.000000 -0.000002 0
0.000024 -0.000134 0
0.000057 -0.000128 0
0.000088 -0.000095 0
0.000111 -0.000047 0
0.000122 0.000015 0
0.000116 0.000085 0
0.000090 0.000154 0
0.000045 0.000208 0
-0.000013 0.000234 0
-0.000073 0.000226 0
-0.000120 0.000189 0
-0.000151 0.000137 0
-0.000164 0.000085 0
-0.000165 0.000041 0
-0.000159 0.000010 0
-0.000149 -0.000008 0
-0.000140 -0.000015 0
-0.000133 -0.000013 0
-0.000129 -0.000006 0
-0.000128 -0.000002 0
0.000000 -0.000001 0
0.000026 -0.000161 0
0.000060 -0.000157 0
0.000091 -0.000122 0
0.000116 -0.000068 0
0.000130 0.000006 0
0.000128 0.000096 0
0.000103 0.000189 0
0.000055 0.000264 0
-0.000010 0.000299 0
-0.000075 0.000284 0
-0.000126 0.000231 0
-0.000155 0.000159 0
-0.000164 0.000090 0
-0.000159 0.000035 0
-0.000148 -0.000000 0
-0.000136 -0.000019 0
-0.000124 -0.000024 0
-0.000116 -0.000020 0
-0.000111 -0.000009 0
-0.000111 -0.000002 0
0.000000 0.000001 0
0.000025 -0.000189 0
0.000055 -0.000189 0
0.000084 -0.000153 0
0.000109 -0.000092 0
0.000126 -0.000004 0
0.000128 0.000108 0
0.000107 0.000227 0
0.000060 0.000324 0
-0.000006 0.000367 0
-0.000072 0.000344 0
-0.000121 0.000270 0
-0.000145 0.000175 0
-0.000149 0.000089 0
-0.000141 0.000025 0
-0.000127 -0.000014 0
-0.000113 -0.000032 0
-0.000101 -0.000035 0
-0.000092 -0.000026 0
-0.000088 -0.000011 0
-0.000088 -0.000002 0
0.000000 0.000000 0
0.000019 -0.000216 0
0.000042 -0.000218 0
0.000066 -0.000179 0
0.000088 -0.000112 0
0.000104 -0.000013 0
0.000108 0.000117 0
0.000093 0.000260 0
0.000054 0.000379 0
-0.000002 0.000431 0
-0.000058 0.000399 0
-0.000097 0.000303 0
-0.000115 0.000187 0
-0.000115 0.000084 0
-0.000105 0.000013 0
-0.000092 -0.000028 0
-0.000080 -0.000045 0
-0.000069 -0.000045 0
-0.000062 -0.000032 0
-0.000058 -0.000013 0
-0.000058 -0.000003 0
0.000000 -0.000001 0
0.000010 -0.000234 0
0.000023 -0.000236 0
0.000037 -0.000196 0
0.000050 -0.000127 0
0.000061 -0.000021 0
0.000064 0.000121 0
0.000056 0.000281 0
0.000034 0.000417 0
0.000002 0.000477 0
-0.000030 0.000439 0
-0.000052 0.000327 0
-0.000061 0.000193 0
-0.000060 0.000079 0
-0.000053 0.000003 0
-0.000045 -0.000039 0
-0.000037 -0.000055 0
-0.000031 -0.000052 0
-0.000026 -0.000037 0
-0.000024 -0.000015 0
-0.000024 -0.000003 0
0.000000 -0.000001 0
-0.000000 -0.000240 0
0.000001 -0.000243 0
0.000002 -0.000203 0
0.000002 -0.000134 0
0.000003 -0.000027 0
0.000003 0.000120 0
0.000004 0.000288 0
0.000005 0.000431 0
0.000006 0.000495 0
0.000007 0.000453 0
0.000008 0.000335 0
0.000009 0.000195 0
0.000009 0.000077 0
0.000010 -0.000002 0
0.000011 -0.000044 0
0.000012 -0.000059 0
0.000012 -0.000055 0
0.000013 -0.000039 0
0.000013 -0.000016 0
0.000013 -0.000003 0
0.000000 0.000000 0
-0.000010 -0.000234 0
-0.000022 -0.000237 0
-0.000035 -0.000198 0
-0.000046 -0.000129 0
-0.000055 -0.000024 0
-0.000058 0.000118 0
-0.000048 0.000279 0
-0.000025 0.000416 0
0.000009 0.000476 0
0.000043 0.000437 0
0.000067 0.000325 0
0.000078 0.000191 0
0.000078 0.000078 0
0.000073 0.000001 0
0.000067 -0.000041 0
0.000060 -0.000056 0
0.000056 -0.000053 0
0.000052 -0.000038 0
0.000051 -0.000015 0
0.000051 -0.000003 0
0.000000 -0.000000 0
-0.000019 -0.000218 0
-0.000042 -0.000219 0
-0.000064 -0.000180 0
-0.000085 -0.000113 0
-0.000100 -0.000015 0
-0.000102 0.000114 0
-0.000086 0.000256 0
-0.000045 0.000374 0
0.000012 0.000427 0
0.000070 0.000395 0
0.000112 0.000300 0
0.000132 0.000183 0
0.000134 0.000081 0
0.000126 0.000010 0
0.000115 -0.000032 0
0.000104 -0.000048 0
0.000096 -0.000047 0
0.000090 -0.000034 0
0.000087 -0.000014 0
0.000086 -0.000002 0
0.000000 -0.000001 0
-0.000025 -0.000193 0
-0.000055 -0.000192 0
-0.000084 -0.000154 0
-0.000108 -0.000092 0
-0.000125 -0.000005 0
-0.000125 0.000105 0
-0.000103 0.000222 0
-0.000053 0.000317 0
0.000015 0.000360 0
0.000083 0.000337 0
0.000135 0.000263 0
0.000163 0.000169 0
0.000170 0.000083 0
0.000164 0.000020 0
0.000152 -0.000019 0
0.000140 -0.000037 0
0.000129 -0.000039 0
0.000122 -0.000029 0
0.000118 -0.000012 0
0.000118 -0.000002 0
0.000000 -0.000000 0
-0.000028 -0.000163 0
-0.000062 -0.000160 0
-0.000093 -0.000125 0
-0.000118 -0.000071 0
-0.000133 0.000002 0
-0.000130 0.000091 0
-0.000103 0.000183 0
-0.000052 0.000256 0
0.000017 0.000290 0
0.000086 0.000275 0
0.000141 0.000221 0
0.000174 0.000149 0
0.000187 0.000081 0
0.000185 0.000027 0
0.000177 -0.000008 0
0.000166 -0.000025 0
0.000156 -0.000029 0
0.000149 -0.000023 0
0.000144 -0.000010 0
0.000144 -0.000002 0
0.000000 -0.000000 0
-0.000030 -0.000131 0
-0.000065 -0.000127 0
-0.000096 -0.000098 0
-0.000119 -0.000053 0
-0.000130 0.000006 0
-0.000124 0.000075 0
-0.000095 0.000144 0
-0.000046 0.000197 0
0.000018 0.000222 0
0.000083 0.000213 0
0.000137 0.000176 0
0.000173 0.000124 0
0.000191 0.000072 0
0.000196 0.000029 0
0.000192 0.000000 0
0.000184 -0.000016 0
0.000176 -0.000021 0
0.000169 -0.000017 0
0.000166 -0.000008 0
0.000165 -0.000002 0
0.000000 -0.000000 0
-0.000031 -0.000099 0
-0.000066 -0.000095 0
-0.000096 -0.000072 0
-0.000117 -0.000037 0
-0.000125 0.000007 0
-0.000116 0.000057 0
-0.000087 0.000106 0
-0.000040 0.000143 0
0.000018 0.000160 0
0.000079 0.000155 0
0.000131 0.000130 0
0.000169 0.000095 0
0.000191 0.000058 0
0.000201 0.000027 0
0.000201 0.000004 0
0.000197 -0.000009 0
0.000191 -0.000014 0
0.000185 -0.000012 0
0.000182 -0.000006 0
0.000181 -0.000001 0
0.000000 -0.000000 0
-0.000032 -0.000066 0
-0.000067 -0.000063 0
-0.000097 -0.000047 0
-0.000116 -0.000023 0
-0.000122 0.000006 0
-0.000112 0.000038 0
-0.000083 0.000069 0
-0.000038 0.000092 0
0.000017 0.000103 0
0.000074 0.000100 0
0.000125 0.000086 0
0.000164 0.000064 0
0.000190 0.000040 0
0.000203 0.000019 0
0.000207 0.000004 0
0.000205 -0.000005 0
0.000201 -0.000009 0
0.000196 -0.000008 0
0.000192 -0.000004 0
0.000192 -0.000001 0
0.000000 -0.000000 0
-0.000031 -0.000032 0
-0.000066 -0.000030 0
-0.000094 -0.000022 0
-0.000112 -0.000011 0
-0.000118 0.000003 0
-0.000107 0.000018 0
-0.000080 0.000032 0
-0.000038 0.000043 0
0.000012 0.000048 0
0.000065 0.000047 0
0.000113 0.000040 0
0.000150 0.000030 0
0.000176 0.000019 0
0.000190 0.000009 0
0.000195 0.000002 0
0.000194 -0.000003 0
0.000190 -0.000005 0
0.000185 -0.000004 0
0.000182 -0.000002 0
0.000181 -0.000000 0
0.000000 0.000000 0
0.000000 0.000000 0
-0.000000 0.000000 0
-0.000000 0.000000 0
-0.000000 0.000000 0
-0.000000 0.000000 0
-0.000000 0.000000 0
-0.000000 0.000000 0
-0.000000 0.000000 0
0.000000 0.000000 0
0.000000 0.000000 0
0.000000 0.000000 0
0.000000 0.000000 0
0.000000 0.000000 0
0.000000 0.000000 0
0.000000 0.000000 0
0.000000 0.000000 0
0.000000 0.000000 0
0.000000 0.000000 0
0.000000 0.000000 0
0.000000 0.000000 0

CELL_DATA 400 
SCALARS pressure float 1 
LOOKUP_TABLE default 
0.242604
0.242572
0.242584
0.242620
0.242651
0.242659
0.242646
0.242622
0.242601
0.242591
0.242592
0.242600
0.242609
0.242615
0.242618
0.242618
0.242618
0.242617
0.242617
0.242618
0.219594
0.219619
0.219637
0.219638
0.219624
0.219607
0.219595
0.219593
0.219600
0.219608
0.219615
0.219619
0.219619
0.219617
0.219616
0.219615
0.219615
0.219616
0.219617
0.219618
0.196631
0.196640
0.196622
0.196598
0.196584
0.196586
0.196599
0.196615
0.196626
0.196628
0.196624
0.196618
0.196613
0.196611
0.196611
0.196613
0.196615
0.196616
0.196617
0.196618
0.173638
0.173619
0.173597
0.173589
0.173596
0.173611
0.173624
0.173630
0.173628
0.173621
0.173613
0.173609
0.173609
0.173610
0.173613
0.173615
0.173617
0.173618
0.173618
0.173619
0.150617
0.150608
0.150608
0.150613
0.150620
0.150623
0.150621
0.150617
0.150613
0.150610
0.150609
0.150611
0.150613
0.150615
0.150616
0.150617
0.150617
0.150618
0.150618
0.150619
0.127610
0.127620
0.127626
0.127624
0.127617
0.127610
0.127606
0.127606
0.127610
0.127613
0.127616
0.127617
0.127617
0.127616
0.127616
0.127616
0.127617
0.127618
0.127618
0.127619
0.104620
0.104628
0.104624
0.104614
0.104606
0.104604
0.104607
0.104612
0.104617
0.104619
0.104619
0.104618
0.104616
0.104615
0.104616
0.104616
0.104617
0.104618
0.104619
0.104620
0.081623
0.081622
0.081617
0.081612
0.081611
0.081613
0.081616
0.081618
0.081619
0.081618
0.081617
0.081616
0.081616
0.081616
0.081617
0.081618
0.081619
0.081619
0.081620
0.081620
0.058618
0.058618
0.058619
0.058620
0.058620
0.058619
0.058618
0.058616
0.058616
0.058616
0.058616
0.058617
0.058618
0.058619
0.058619
0.058619
0.058620
0.058620
0.058620
0.058621
0.035616
0.035622
0.035625
0.035625
0.035622
0.035618
0.035615
0.035615
0.035616
0.035618
0.035620
0.035620
0.035621
0.035621
0.035620
0.035620
0.035620
0.035621
0.035621
0.035621
0.012621
0.012625
0.012626
0.012624
0.012621
0.012618
0.012618
0.012619
0.012621
0.012622
0.012623
0.012623
0.012622
0.012622
0.012622
0.012622
0.012622
0.012622
0.012622
0.012622
-0.010376
-0.010376
-0.010376
-0.010376
-0.010377
-0.010377
-0.010377
-0.010376
-0.010376
-0.010376
-0.010376
-0.010376
-0.010376
-0.010377
-0.010377
-0.010377
-0.010377
-0.010377
-0.010377
-0.010377
-0.033377
-0.033376
-0.033375
-0.033373
-0.033372
-0.033373
-0.033374
-0.033374
-0.033374
-0.033374
-0.033374
-0.033374
-0.033374
-0.033374
-0.033375
-0.033375
-0.033376
-0.033376
-0.033376
-0.033377
-0.056376
-0.056374
-0.056372
-0.056371
-0.056371
-0.056371
-0.056372
-0.056373
-0.056372
-0.056372
-0.056372
-0.056372
-0.056372
-0.056373
-0.056373
-0.056374
-0.056375
-0.056375
-0.056376
-0.056376
-0.079374
-0.079373
-0.079371
-0.079370
-0.079370
-0.079371
-0.079371
-0.079370
-0.079370
-0.079370
-0.079370
-0.079370
-0.079371
-0.079371
-0.079372
-0.079373
-0.079374
-0.079374
-0.079375
-0.079375
-0.102372
-0.102372
-0.102371
-0.102370
-0.102369
-0.102369
-0.102368
-0.102368
-0.102368
-0.102368
-0.102369
-0.102369
-0.102370
-0.102370
-0.102371
-0.102372
-0.102373
-0.102373
-0.102374
-0.102375
-0.125371
-0.125372
-0.125371
-0.125369
-0.125368
-0.125367
-0.125367
-0.125367
-0.125367
-0.125368
-0.125368
-0.125368
-0.125369
-0.125369
-0.125370
-0.125371
-0.125372
-0.125373
-0.125373
-0.125374
-0.148370
-0.148371
-0.148370
-0.148368
-0.148367
-0.148367
-0.148367
-0.148367
-0.148367
-0.148367
-0.148367
-0.148367
-0.148368
-0.148368
-0.148369
-0.148370
-0.148371
-0.148372
-0.148373
-0.148374
-0.171370
-0.171370
-0.171369
-0.171368
-0.171367
-0.171366
-0.171366
-0.171366
-0.171365
-0.171365
-0.171366
-0.171366
-0.171367
-0.171367
-0.171368
-0.171369
-0.171370
-0.171371
-0.171372
-0.171373
-0.194369
-0.194369
-0.194369
-0.194368
-0.194367
-0.194366
-0.194365
-0.194364
-0.194364
-0.194364
-0.194365
-0.194365
-0.194366
-0.194367
-0.194368
-0.194369
-0.194370
-0.194371
-0.194372
-0.194373

SCALARS temperature float 1 
LOOKUP_TABLE default 
0.000023
0.000187
0.000503
0.000948
0.001483
0.002060
0.002621
0.003107
0.003470
0.003675
0.003716
0.003609
0.003388
0.003098
0.002781
0.002475
0.002206
0.001994
0.001848
0.001775
0.000025
0.000202
0.000544
0.001025
0.001607
0.002236
0.002848
0.003378
0.003769
0.003984
0.004016
0.003886
0.003632
0.003306
0.002954
0.002618
0.002325
0.002095
0.001938
0.001859
0.000029
0.000234
0.000630
0.001190
0.001871
0.002612
0.003334
0.003957
0.004410
0.004645
0.004655
0.004469
0.004140
0.003732
0.003304
0.002902
0.002558
0.002292
0.002112
0.002021
0.000036
0.000284
0.000769
0.001460
0.002309
0.003239
0.004154
0.004941
0.005500
0.005764
0.005725
0.005432
0.004963
0.004410
0.003849
0.003338
0.002910
0.002585
0.002367
0.002259
0.000046
0.000358
0.000972
0.001860
0.002965
0.004196
0.005419
0.006473
0.007202
0.007503
0.007368
0.006881
0.006174
0.005382
0.004612
0.003933
0.003382
0.002971
0.002700
0.002567
0.000059
0.000457
0.001249
0.002411
0.003887
0.005566
0.007266
0.008741
0.009736
0.010079
0.009764
0.008944
0.007847
0.006683
0.005602
0.004686
0.003964
0.003439
0.003100
0.002935
0.000075
0.000581
0.001597
0.003118
0.005099
0.007414
0.009820
0.011937
0.013340
0.013726
0.013092
0.011728
0.010026
0.008316
0.006803
0.005571
0.004632
0.003966
0.003543
0.003340
0.000093
0.000721
0.001997
0.003949
0.006564
0.009721
0.013108
0.016156
0.018159
0.018581
0.017431
0.015236
0.012662
0.010212
0.008145
0.006527
0.005335
0.004511
0.003998
0.003753
0.000111
0.000860
0.002404
0.004813
0.008135
0.012283
0.016893
0.021158
0.023960
0.024409
0.022526
0.019209
0.015521
0.012183
0.009488
0.007458
0.006006
0.005024
0.004421
0.004136
0.000126
0.000977
0.002748
0.005558
0.009526
0.014635
0.020492
0.026055
0.029729
0.030195
0.027488
0.022952
0.018113
0.013906
0.010629
0.008233
0.006559
0.005445
0.004768
0.004450
0.000135
0.001047
0.002955
0.006010
0.010381
0.016115
0.022813
0.029285
0.033579
0.034060
0.030773
0.025382
0.019763
0.014990
0.011346
0.008726
0.006917
0.005723
0.005001
0.004661
0.000137
0.001057
0.002980
0.006056
0.010451
0.016210
0.022936
0.029445
0.033780
0.034277
0.030986
0.025585
0.019952
0.015163
0.011500
0.008862
0.007036
0.005828
0.005097
0.004753
0.000130
0.001006
0.002824
0.005699
0.009741
0.014930
0.020873
0.026542
0.030323
0.030839
0.028126
0.023556
0.018675
0.014419
0.011086
0.008635
0.006912
0.005760
0.005056
0.004723
0.000118
0.000910
0.002535
0.005057
0.008510
0.012800
0.017559
0.021985
0.024933
0.025457
0.023572
0.020209
0.016454
0.013033
0.010246
0.008124
0.006592
0.005546
0.004898
0.004588
0.000103
0.000792
0.002188
0.004305
0.007116
0.010484
0.014085
0.017340
0.019513
0.020028
0.018886
0.016636
0.013968
0.011399
0.009200
0.007454
0.006149
0.005235
0.004660
0.004381
0.000087
0.000676
0.001850
0.003593
0.005839
0.008440
0.011129
0.013499
0.015099
0.015592
0.014969
0.013537
0.011709
0.009839
0.008152
0.006752
0.005667
0.004886
0.004384
0.004139
0.000074
0.000576
0.001565
0.003006
0.004818
0.006859
0.008912
0.010694
0.011918
0.012382
0.012075
0.011167
0.009908
0.008539
0.007240
0.006116
0.005215
0.004550
0.004115
0.003899
0.000064
0.000500
0.001352
0.002575
0.004086
0.005755
0.007403
0.008823
0.009817
0.010255
0.010122
0.009520
0.008612
0.007570
0.006536
0.005609
0.004845
0.004268
0.003885
0.003693
0.000057
0.000450
0.001213
0.002299
0.003625
0.005072
0.006487
0.007702
0.008567
0.008984
0.008940
0.008503
0.007791
0.006938
0.006065
0.005261
0.004586
0.004067
0.003719
0.003544
0.000054
0.000425
0.001145
0.002165
0.003404
0.004748
0.006057
0.007180
0.007988
0.008394
0.008387
0.008020
0.007394
0.006627
0.005828
0.005084
0.004451
0.003963
0.003632
0.003466


SCALARS Species_1 float 1 
LOOKUP_TABLE default 
0.000574
0.001716
0.002843
0.003945
0.005012
0.006035
0.007003
0.007909
0.008742
0.009498
0.010170
0.010758
0.011261
0.011682
0.012025
0.012296
0.012503
0.012651
0.012746
0.012792
0.000573
0.001714
0.002840
0.003940
0.005007
0.006028
0.006996
0.007900
0.008733
0.009488
0.010160
0.010747
0.011250
0.011670
0.012013
0.012285
0.012492
0.012640
0.012735
0.012782
0.000572
0.001711
0.002834
0.003933
0.004997
0.006017
0.006982
0.007885
0.008716
0.009470
0.010141
0.010727
0.011229
0.011649
0.011992
0.012263
0.012470
0.012618
0.012714
0.012760
0.000570
0.001705
0.002825
0.003920
0.004981
0.005997
0.006960
0.007860
0.008688
0.009439
0.010108
0.010693
0.011194
0.011613
0.011955
0.012226
0.012432
0.012580
0.012675
0.012722
0.000567
0.001697
0.002811
0.003900
0.004956
0.005967
0.006924
0.007819
0.008644
0.009391
0.010057
0.010639
0.011137
0.011554
0.011895
0.012164
0.012370
0.012517
0.012612
0.012659
0.000563
0.001684
0.002789
0.003870
0.004917
0.005921
0.006871
0.007759
0.008577
0.009319
0.009980
0.010557
0.011051
0.011465
0.011804
0.012071
0.012275
0.012422
0.012516
0.012563
0.000557
0.001665
0.002759
0.003828
0.004864
0.005856
0.006795
0.007674
0.008483
0.009217
0.009870
0.010441
0.010930
0.011340
0.011674
0.011940
0.012142
0.012287
0.012380
0.012426
0.000549
0.001641
0.002718
0.003772
0.004792
0.005769
0.006695
0.007560
0.008357
0.009080
0.009724
0.010286
0.010768
0.011172
0.011501
0.011763
0.011962
0.012105
0.012198
0.012243
0.000538
0.001610
0.002666
0.003700
0.004700
0.005659
0.006567
0.007416
0.008198
0.008907
0.009538
0.010089
0.010562
0.010958
0.011281
0.011538
0.011734
0.011875
0.011965
0.012010
0.000526
0.001572
0.002604
0.003613
0.004590
0.005526
0.006413
0.007241
0.008004
0.008696
0.009312
0.009850
0.010312
0.010698
0.011015
0.011265
0.011457
0.011595
0.011684
0.011727
0.000511
0.001528
0.002531
0.003512
0.004462
0.005372
0.006233
0.007038
0.007780
0.008452
0.009050
0.009573
0.010022
0.010398
0.010705
0.010950
0.011136
0.011270
0.011357
0.011400
0.000495
0.001479
0.002450
0.003400
0.004319
0.005200
0.006034
0.006813
0.007530
0.008180
0.008759
0.009265
0.009699
0.010064
0.010362
0.010599
0.010780
0.010910
0.010994
0.011035
0.000477
0.001427
0.002364
0.003280
0.004167
0.005016
0.005820
0.006571
0.007263
0.007890
0.008448
0.008937
0.009356
0.009707
0.009996
0.010225
0.010400
0.010526
0.010607
0.010647
0.000459
0.001373
0.002275
0.003157
0.004011
0.004828
0.005602
0.006324
0.006990
0.007593
0.008131
0.008601
0.009005
0.009344
0.009621
0.009842
0.010011
0.010133
0.010212
0.010251
0.000442
0.001321
0.002188
0.003037
0.003857
0.004644
0.005388
0.006083
0.006723
0.007303
0.007820
0.008273
0.008662
0.008988
0.009256
0.009469
0.009632
0.009750
0.009826
0.009863
0.000425
0.001272
0.002108
0.002924
0.003715
0.004472
0.005188
0.005858
0.006474
0.007034
0.007532
0.007969
0.008344
0.008659
0.008917
0.009123
0.009280
0.009394
0.009467
0.009504
0.000411
0.001229
0.002037
0.002826
0.003590
0.004322
0.005014
0.005661
0.006258
0.006798
0.007281
0.007703
0.008066
0.008371
0.008622
0.008821
0.008974
0.009084
0.009155
0.009190
0.000400
0.001195
0.001980
0.002748
0.003490
0.004202
0.004875
0.005504
0.006084
0.006610
0.007079
0.007490
0.007844
0.008141
0.008385
0.008579
0.008728
0.008835
0.008905
0.008939
0.000392
0.001171
0.001941
0.002693
0.003421
0.004118
0.004778
0.005394
0.005962
0.006478
0.006938
0.007342
0.007689
0.007980
0.008220
0.008410
0.008557
0.008662
0.008730
0.008763
0.000387
0.001159
0.001920
0.002664
0.003385
0.004075
0.004728
0.005338
0.005900
0.006411
0.006866
0.007266
0.007609
0.007898
0.008135
0.008324
0.008468
0.008573
0.008640
0.008673


SCALARS Species_2 float 1 
LOOKUP_TABLE default 
0.000276
0.000819
0.001334
0.001805
0.002219
0.002565
0.002837
0.003032
0.003152
0.003200
0.003187
0.003121
0.003017
0.002886
0.002744
0.002602
0.002474
0.002368
0.002293
0.002254
0.000281
0.000835
0.001360
0.001840
0.002262
0.002616
0.002893
0.003092
0.003214
0.003264
0.003251
0.003185
0.003078
0.002946
0.002801
0.002657
0.002526
0.002419
0.002342
0.002303
0.000292
0.000867
0.001412
0.001910
0.002349
0.002715
0.003003
0.003210
0.003337
0.003389
0.003376
0.003307
0.003198
0.003061
0.002911
0.002762
0.002626
0.002515
0.002436
0.002395
0.000308
0.000913