# vtk DataFile Version 2.0
generated by CFD-lab course output (written by Tobias Neckel) 
ASCII

DATASET STRUCTURED_GRID
DIMENSIONS  21 21 1 
POINTS 441 float

0.000000 0.000000 0
0.100000 0.000000 0
0.200000 0.000000 0
0.300000 0.000000 0
0.400000 0.000000 0
0.500000 0.000000 0
0.600000 0.000000 0
0.700000 0.000000 0
0.800000 0.000000 0
0.900000 0.000000 0
1.000000 0.000000 0
1.100000 0.000000 0
1.200000 0.000000 0
1.300000 0.000000 0
1.400000 0.000000 0
1.500000 0.000000 0
1.600000 0.000000 0
1.700000 0.000000 0
1.800000 0.000000 0
1.900000 0.000000 0
2.000000 0.000000 0
0.000000 0.100000 0
0.100000 0.100000 0
0.200000 0.100000 0
0.300000 0.100000 0
0.400000 0.100000 0
0.500000 0.100000 0
0.600000 0.100000 0
0.700000 0.100000 0
0.800000 0.100000 0
0.900000 0.100000 0
1.000000 0.100000 0
1.100000 0.100000 0
1.200000 0.100000 0
1.300000 0.100000 0
1.400000 0.100000 0
1.500000 0.100000 0
1.600000 0.100000 0
1.700000 0.100000 0
1.800000 0.100000 0
1.900000 0.100000 0
2.000000 0.100000 0
0.000000 0.200000 0
0.100000 0.200000 0
0.200000 0.200000 0
0.300000 0.200000 0
0.400000 0.200000 0
0.500000 0.200000 0
0.600000 0.200000 0
0.700000 0.200000 0
0.800000 0.200000 0
0.900000 0.200000 0
1.000000 0.200000 0
1.100000 0.200000 0
1.200000 0.200000 0
1.300000 0.200000 0
1.400000 0.200000 0
1.500000 0.200000 0
1.600000 0.200000 0
1.700000 0.200000 0
1.800000 0.200000 0
1.900000 0.200000 0
2.000000 0.200000 0
0.000000 0.300000 0
0.100000 0.300000 0
0.200000 0.300000 0
0.300000 0.300000 0
0.400000 0.300000 0
0.500000 0.300000 0
0.600000 0.300000 0
0.700000 0.300000 0
0.800000 0.300000 0
0.900000 0.300000 0
1.000000 0.300000 0
1.100000 0.300000 0
1.200000 0.300000 0
1.300000 0.300000 0
1.400000 0.300000 0
1.500000 0.300000 0
1.600000 0.300000 0
1.700000 0.300000 0
1.800000 0.300000 0
1.900000 0.300000 0
2.000000 0.300000 0
0.000000 0.400000 0
0.100000 0.400000 0
0.200000 0.400000 0
0.300000 0.400000 0
0.400000 0.400000 0
0.500000 0.400000 0
0.600000 0.400000 0
0.700000 0.400000 0
0.800000 0.400000 0
0.900000 0.400000 0
1.000000 0.400000 0
1.100000 0.400000 0
1.200000 0.400000 0
1.300000 0.400000 0
1.400000 0.400000 0
1.500000 0.400000 0
1.600000 0.400000 0
1.700000 0.400000 0
1.800000 0.400000 0
1.900000 0.400000 0
2.000000 0.400000 0
0.000000 0.500000 0
0.100000 0.500000 0
0.200000 0.500000 0
0.300000 0.500000 0
0.400000 0.500000 0
0.500000 0.500000 0
0.600000 0.500000 0
0.700000 0.500000 0
0.800000 0.500000 0
0.900000 0.500000 0
1.000000 0.500000 0
1.100000 0.500000 0
1.200000 0.500000 0
1.300000 0.500000 0
1.400000 0.500000 0
1.500000 0.500000 0
1.600000 0.500000 0
1.700000 0.500000 0
1.800000 0.500000 0
1.900000 0.500000 0
2.000000 0.500000 0
0.000000 0.600000 0
0.100000 0.600000 0
0.200000 0.600000 0
0.300000 0.600000 0
0.400000 0.600000 0
0.500000 0.600000 0
0.600000 0.600000 0
0.700000 0.600000 0
0.800000 0.600000 0
0.900000 0.600000 0
1.000000 0.600000 0
1.100000 0.600000 0
1.200000 0.600000 0
1.300000 0.600000 0
1.400000 0.600000 0
1.500000 0.600000 0
1.600000 0.600000 0
1.700000 0.600000 0
1.800000 0.600000 0
1.900000 0.600000 0
2.000000 0.600000 0
0.000000 0.700000 0
0.100000 0.700000 0
0.200000 0.700000 0
0.300000 0.700000 0
0.400000 0.700000 0
0.500000 0.700000 0
0.600000 0.700000 0
0.700000 0.700000 0
0.800000 0.700000 0
0.900000 0.700000 0
1.000000 0.700000 0
1.100000 0.700000 0
1.200000 0.700000 0
1.300000 0.700000 0
1.400000 0.700000 0
1.500000 0.700000 0
1.600000 0.700000 0
1.700000 0.700000 0
1.800000 0.700000 0
1.900000 0.700000 0
2.000000 0.700000 0
0.000000 0.800000 0
0.100000 0.800000 0
0.200000 0.800000 0
0.300000 0.800000 0
0.400000 0.800000 0
0.500000 0.800000 0
0.600000 0.800000 0
0.700000 0.800000 0
0.800000 0.800000 0
0.900000 0.800000 0
1.000000 0.800000 0
1.100000 0.800000 0
1.200000 0.800000 0
1.300000 0.800000 0
1.400000 0.800000 0
1.500000 0.800000 0
1.600000 0.800000 0
1.700000 0.800000 0
1.800000 0.800000 0
1.900000 0.800000 0
2.000000 0.800000 0
0.000000 0.900000 0
0.100000 0.900000 0
0.200000 0.900000 0
0.300000 0.900000 0
0.400000 0.900000 0
0.500000 0.900000 0
0.600000 0.900000 0
0.700000 0.900000 0
0.800000 0.900000 0
0.900000 0.900000 0
1.000000 0.900000 0
1.100000 0.900000 0
1.200000 0.900000 0
1.300000 0.900000 0
1.400000 0.900000 0
1.500000 0.900000 0
1.600000 0.900000 0
1.700000 0.900000 0
1.800000 0.900000 0
1.900000 0.900000 0
2.000000 0.900000 0
0.000000 1.000000 0
0.100000 1.000000 0
0.200000 1.000000 0
0.300000 1.000000 0
0.400000 1.000000 0
0.500000 1.000000 0
0.600000 1.000000 0
0.700000 1.000000 0
0.800000 1.000000 0
0.900000 1.000000 0
1.000000 1.000000 0
1.100000 1.000000 0
1.200000 1.000000 0
1.300000 1.000000 0
1.400000 1.000000 0
1.500000 1.000000 0
1.600000 1.000000 0
1.700000 1.000000 0
1.800000 1.000000 0
1.900000 1.000000 0
2.000000 1.000000 0
0.000000 1.100000 0
0.100000 1.100000 0
0.200000 1.100000 0
0.300000 1.100000 0
0.400000 1.100000 0
0.500000 1.100000 0
0.600000 1.100000 0
0.700000 1.100000 0
0.800000 1.100000 0
0.900000 1.100000 0
1.000000 1.100000 0
1.100000 1.100000 0
1.200000 1.100000 0
1.300000 1.100000 0
1.400000 1.100000 0
1.500000 1.100000 0
1.600000 1.100000 0
1.700000 1.100000 0
1.800000 1.100000 0
1.900000 1.100000 0
2.000000 1.100000 0
0.000000 1.200000 0
0.100000 1.200000 0
0.200000 1.200000 0
0.300000 1.200000 0
0.400000 1.200000 0
0.500000 1.200000 0
0.600000 1.200000 0
0.700000 1.200000 0
0.800000 1.200000 0
0.900000 1.200000 0
1.000000 1.200000 0
1.100000 1.200000 0
1.200000 1.200000 0
1.300000 1.200000 0
1.400000 1.200000 0
1.500000 1.200000 0
1.600000 1.200000 0
1.700000 1.200000 0
1.800000 1.200000 0
1.900000 1.200000 0
2.000000 1.200000 0
0.000000 1.300000 0
0.100000 1.300000 0
0.200000 1.300000 0
0.300000 1.300000 0
0.400000 1.300000 0
0.500000 1.300000 0
0.600000 1.300000 0
0.700000 1.300000 0
0.800000 1.300000 0
0.900000 1.300000 0
1.000000 1.300000 0
1.100000 1.300000 0
1.200000 1.300000 0
1.300000 1.300000 0
1.400000 1.300000 0
1.500000 1.300000 0
1.600000 1.300000 0
1.700000 1.300000 0
1.800000 1.300000 0
1.900000 1.300000 0
2.000000 1.300000 0
0.000000 1.400000 0
0.100000 1.400000 0
0.200000 1.400000 0
0.300000 1.400000 0
0.400000 1.400000 0
0.500000 1.400000 0
0.600000 1.400000 0
0.700000 1.400000 0
0.800000 1.400000 0
0.900000 1.400000 0
1.000000 1.400000 0
1.100000 1.400000 0
1.200000 1.400000 0
1.300000 1.400000 0
1.400000 1.400000 0
1.500000 1.400000 0
1.600000 1.400000 0
1.700000 1.400000 0
1.800000 1.400000 0
1.900000 1.400000 0
2.000000 1.400000 0
0.000000 1.500000 0
0.100000 1.500000 0
0.200000 1.500000 0
0.300000 1.500000 0
0.400000 1.500000 0
0.500000 1.500000 0
0.600000 1.500000 0
0.700000 1.500000 0
0.800000 1.500000 0
0.900000 1.500000 0
1.000000 1.500000 0
1.100000 1.500000 0
1.200000 1.500000 0
1.300000 1.500000 0
1.400000 1.500000 0
1.500000 1.500000 0
1.600000 1.500000 0
1.700000 1.500000 0
1.800000 1.500000 0
1.900000 1.500000 0
2.000000 1.500000 0
0.000000 1.600000 0
0.100000 1.600000 0
0.200000 1.600000 0
0.300000 1.600000 0
0.400000 1.600000 0
0.500000 1.600000 0
0.600000 1.600000 0
0.700000 1.600000 0
0.800000 1.600000 0
0.900000 1.600000 0
1.000000 1.600000 0
1.100000 1.600000 0
1.200000 1.600000 0
1.300000 1.600000 0
1.400000 1.600000 0
1.500000 1.600000 0
1.600000 1.600000 0
1.700000 1.600000 0
1.800000 1.600000 0
1.900000 1.600000 0
2.000000 1.600000 0
0.000000 1.700000 0
0.100000 1.700000 0
0.200000 1.700000 0
0.300000 1.700000 0
0.400000 1.700000 0
0.500000 1.700000 0
0.600000 1.700000 0
0.700000 1.700000 0
0.800000 1.700000 0
0.900000 1.700000 0
1.000000 1.700000 0
1.100000 1.700000 0
1.200000 1.700000 0
1.300000 1.700000 0
1.400000 1.700000 0
1.500000 1.700000 0
1.600000 1.700000 0
1.700000 1.700000 0
1.800000 1.700000 0
1.900000 1.700000 0
2.000000 1.700000 0
0.000000 1.800000 0
0.100000 1.800000 0
0.200000 1.800000 0
0.300000 1.800000 0
0.400000 1.800000 0
0.500000 1.800000 0
0.600000 1.800000 0
0.700000 1.800000 0
0.800000 1.800000 0
0.900000 1.800000 0
1.000000 1.800000 0
1.100000 1.800000 0
1.200000 1.800000 0
1.300000 1.800000 0
1.400000 1.800000 0
1.500000 1.800000 0
1.600000 1.800000 0
1.700000 1.800000 0
1.800000 1.800000 0
1.900000 1.800000 0
2.000000 1.800000 0
0.000000 1.900000 0
0.100000 1.900000 0
0.200000 1.900000 0
0.300000 1.900000 0
0.400000 1.900000 0
0.500000 1.900000 0
0.600000 1.900000 0
0.700000 1.900000 0
0.800000 1.900000 0
0.900000 1.900000 0
1.000000 1.900000 0
1.100000 1.900000 0
1.200000 1.900000 0
1.300000 1.900000 0
1.400000 1.900000 0
1.500000 1.900000 0
1.600000 1.900000 0
1.700000 1.900000 0
1.800000 1.900000 0
1.900000 1.900000 0
2.000000 1.900000 0
0.000000 2.000000 0
0.100000 2.000000 0
0.200000 2.000000 0
0.300000 2.000000 0
0.400000 2.000000 0
0.500000 2.000000 0
0.600000 2.000000 0
0.700000 2.000000 0
0.800000 2.000000 0
0.900000 2.000000 0
1.000000 2.000000 0
1.100000 2.000000 0
1.200000 2.000000 0
1.300000 2.000000 0
1.400000 2.000000 0
1.500000 2.000000 0
1.600000 2.000000 0
1.700000 2.000000 0
1.800000 2.000000 0
1.900000 2.000000 0
2.000000 2.000000 0
POINT_DATA 441 

VECTORS velocity float
0.000000 0.000000 0
-0.000004 0.000000 0
-0.000009 0.000000 0
-0.000006 0.000000 0
0.000000 0.000000 0
0.000005 0.000000 0
0.000006 0.000000 0
0.000004 0.000000 0
0.000001 0.000000 0
-0.000002 0.000000 0
-0.000003 0.000000 0
-0.000002 0.000000 0
-0.000001 0.000000 0
-0.000000 0.000000 0
0.000000 0.000000 0
0.000000 0.000000 0
0.000000 0.000000 0
0.000000 0.000000 0
-0.000000 0.000000 0
-0.000000 0.000000 0
-0.000000 0.000000 0
0.000000 -0.000009 0
0.000004 -0.000017 0
0.000009 -0.000015 0
0.000017 -0.000003 0
0.000023 0.000009 0
0.000025 0.000016 0
0.000021 0.000017 0
0.000012 0.000013 0
-0.000001 0.000008 0
-0.000016 0.000006 0
-0.000030 0.000006 0
-0.000043 0.000007 0
-0.000053 0.000008 0
-0.000060 0.000007 0
-0.000065 0.000005 0
-0.000068 0.000003 0
-0.000070 0.000002 0
-0.000070 0.000000 0
-0.000070 -0.000000 0
-0.000069 -0.000000 0
-0.000069 -0.000000 0
0.000000 -0.000006 0
0.000007 -0.000018 0
0.000019 -0.000008 0
0.000026 0.000001 0
0.000028 0.000005 0
0.000026 0.000006 0
0.000020 0.000008 0
0.000011 0.000012 0
-0.000001 0.000018 0
-0.000016 0.000024 0
-0.000031 0.000026 0
-0.000045 0.000025 0
-0.000057 0.000021 0
-0.000066 0.000015 0
-0.000071 0.000009 0
-0.000074 0.000004 0
-0.000075 0.000001 0
-0.000074 -0.000001 0
-0.000074 -0.000001 0
-0.000073 -0.000001 0
-0.000073 -0.000001 0
0.000000 0.000004 0
0.000014 -0.000018 0
0.000024 -0.000016 0
0.000028 -0.000014 0
0.000029 -0.000009 0
0.000028 0.000000 0
0.000025 0.000014 0
0.000017 0.000029 0
0.000004 0.000041 0
-0.000013 0.000047 0
-0.000031 0.000046 0
-0.000048 0.000039 0
-0.000062 0.000030 0
-0.000070 0.000020 0
-0.000075 0.000011 0
-0.000076 0.000005 0
-0.000076 0.000001 0
-0.000074 -0.000001 0
-0.000073 -0.000002 0
-0.000072 -0.000001 0
-0.000072 -0.000001 0
0.000000 0.000003 0
0.000014 -0.000031 0
0.000023 -0.000033 0
0.000030 -0.000027 0
0.000036 -0.000012 0
0.000039 0.000008 0
0.000036 0.000029 0
0.000027 0.000048 0
0.000010 0.000061 0
-0.000012 0.000065 0
-0.000035 0.000062 0
-0.000054 0.000052 0
-0.000068 0.000039 0
-0.000076 0.000025 0
-0.000079 0.000014 0
-0.000078 0.000005 0
-0.000076 -0.000000 0
-0.000074 -0.000003 0
-0.000072 -0.000003 0
-0.000070 -0.000002 0
-0.000070 -0.000001 0
0.000000 -0.000002 0
0.000012 -0.000047 0
0.000025 -0.000045 0
0.000038 -0.000031 0
0.000047 -0.000011 0
0.000051 0.000012 0
0.000048 0.000037 0
0.000036 0.000061 0
0.000015 0.000078 0
-0.000012 0.000086 0
-0.000038 0.000082 0
-0.000060 0.000069 0
-0.000075 0.000050 0
-0.000082 0.000031 0
-0.000083 0.000015 0
-0.000080 0.000003 0
-0.000076 -0.000003 0
-0.000072 -0.000006 0
-0.000069 -0.000005 0
-0.000067 -0.000003 0
-0.000067 -0.000001 0
0.000000 -0.000002 0
0.000013 -0.000060 0
0.000030 -0.000054 0
0.000045 -0.000040 0
0.000056 -0.000019 0
0.000061 0.000008 0
0.000059 0.000041 0
0.000046 0.000075 0
0.000022 0.000103 0
-0.000010 0.000116 0
-0.000041 0.000110 0
-0.000067 0.000090 0
-0.000081 0.000062 0
-0.000087 0.000034 0
-0.000085 0.000013 0
-0.000080 -0.000001 0
-0.000074 -0.000008 0
-0.000068 -0.000010 0
-0.000064 -0.000008 0
-0.000061 -0.000004 0
-0.000061 -0.000002 0
0.000000 0.000001 0
0.000015 -0.000073 0
0.000032 -0.000070 0
0.000047 -0.000056 0
0.000059 -0.000033 0
0.000067 0.000002 0
0.000067 0.000047 0
0.000055 0.000096 0
0.000029 0.000135 0
-0.000007 0.000152 0
-0.000044 0.000142 0
-0.000071 0.000111 0
-0.000085 0.000071 0
-0.000088 0.000034 0
-0.000084 0.000008 0
-0.000076 -0.000008 0
-0.000068 -0.000016 0
-0.000061 -0.000016 0
-0.000056 -0.000012 0
-0.000053 -0.000006 0
-0.000053 -0.000002 0
0.000000 0.000001 0
0.000013 -0.000088 0
0.000028 -0.000087 0
0.000043 -0.000073 0
0.000057 -0.000045 0
0.000067 -0.000003 0
0.000070 0.000054 0
0.000059 0.000117 0
0.000033 0.000169 0
-0.000005 0.000191 0
-0.000043 0.000175 0
-0.000070 0.000131 0
-0.000082 0.000078 0
-0.000082 0.000032 0
-0.000075 0.000000 0
-0.000066 -0.000017 0
-0.000057 -0.000023 0
-0.000050 -0.000022 0
-0.000045 -0.000016 0
-0.000042 -0.000007 0
-0.000042 -0.000002 0
0.000000 -0.000001 0
0.000009 -0.000102 0
0.000022 -0.000102 0
0.000035 -0.000086 0
0.000047 -0.000056 0
0.000057 -0.000009 0
0.000060 0.000058 0
0.000052 0.000134 0
0.000030 0.000199 0
-0.000003 0.000227 0
-0.000035 0.000206 0
-0.000057 0.000149 0
-0.000065 0.000082 0
-0.000064 0.000027 0
-0.000056 -0.000008 0
-0.000048 -0.000026 0
-0.000040 -0.000031 0
-0.000034 -0.000028 0
-0.000030 -0.000020 0
-0.000028 -0.000008 0
-0.000028 -0.000002 0
0.000000 -0.000001 0
0.000005 -0.000111 0
0.000012 -0.000111 0
0.000020 -0.000095 0
0.000027 -0.000065 0
0.000033 -0.000015 0
0.000035 0.000058 0
0.000031 0.000145 0
0.000018 0.000222 0
-0.000000 0.000255 0
-0.000019 0.000229 0
-0.000031 0.000162 0
-0.000035 0.000085 0
-0.000033 0.000023 0
-0.000028 -0.000015 0
-0.000023 -0.000033 0
-0.000019 -0.000037 0
-0.000015 -0.000032 0
-0.000013 -0.000022 0
-0.000011 -0.000009 0
-0.000011 -0.000002 0
0.000000 0.000000 0
-0.000000 -0.000114 0
0.000000 -0.000114 0
0.000000 -0.000099 0
0.000000 -0.000070 0
0.000000 -0.000019 0
0.000000 0.000057 0
0.000000 0.000149 0
0.000001 0.000230 0
0.000003 0.000265 0
0.000004 0.000237 0
0.000005 0.000166 0
0.000005 0.000085 0
0.000006 0.000021 0
0.000006 -0.000018 0
0.000006 -0.000036 0
0.000006 -0.000040 0
0.000006 -0.000034 0
0.000007 -0.000023 0
0.000007 -0.000010 0
0.000007 -0.000002 0
0.000000 0.000000 0
-0.000006 -0.000111 0
-0.000012 -0.000111 0
-0.000019 -0.000096 0
-0.000026 -0.000066 0
-0.000032 -0.000016 0
-0.000034 0.000057 0
-0.000029 0.000145 0
-0.000015 0.000220 0
0.000005 0.000253 0
0.000026 0.000227 0
0.000040 0.000160 0
0.000045 0.000084 0
0.000044 0.000022 0
0.000040 -0.000016 0
0.000035 -0.000034 0
0.000031 -0.000038 0
0.000028 -0.000033 0
0.000026 -0.000022 0
0.000025 -0.000009 0
0.000025 -0.000002 0
0.000000 -0.000000 0
-0.000011 -0.000102 0
-0.000022 -0.000101 0
-0.000034 -0.000086 0
-0.000046 -0.000057 0
-0.000055 -0.000010 0
-0.000058 0.000056 0
-0.000049 0.000131 0
-0.000026 0.000195 0
0.000008 0.000223 0
0.000042 0.000202 0
0.000065 0.000146 0
0.000075 0.000081 0
0.000074 0.000026 0
0.000068 -0.000009 0
0.000060 -0.000027 0
0.000053 -0.000032 0
0.000048 -0.000029 0
0.000044 -0.000020 0
0.000042 -0.000009 0
0.000042 -0.000002 0
0.000000 -0.000000 0
-0.000014 -0.000089 0
-0.000029 -0.000087 0
-0.000043 -0.000071 0
-0.000057 -0.000044 0
-0.000067 -0.000003 0
-0.000068 0.000051 0
-0.000057 0.000112 0
-0.000029 0.000163 0
0.000010 0.000185 0
0.000049 0.000170 0
0.000077 0.000127 0
0.000091 0.000075 0
0.000092 0.000030 0
0.000086 -0.000002 0
0.000078 -0.000019 0
0.000070 -0.000025 0
0.000064 -0.000023 0
0.000059 -0.000017 0
0.000057 -0.000007 0
0.000057 -0.000002 0
0.000000 -0.000000 0
-0.000015 -0.000074 0
-0.000031 -0.000071 0
-0.000047 -0.000056 0
-0.000060 -0.000033 0
-0.000068 0.000001 0
-0.000068 0.000045 0
-0.000054 0.000091 0
-0.000026 0.000129 0
0.000012 0.000145 0
0.000050 0.000135 0
0.000079 0.000105 0
0.000095 0.000066 0
0.000099 0.000030 0
0.000096 0.000004 0
0.000089 -0.000011 0
0.000082 -0.000018 0
0.000076 -0.000018 0
0.000071 -0.000013 0
0.000069 -0.000006 0
0.000069 -0.000002 0
0.000000 -0.000000 0
-0.000015 -0.000058 0
-0.000031 -0.000055 0
-0.000046 -0.000043 0
-0.000058 -0.000023 0
-0.000064 0.000004 0
-0.000061 0.000037 0
-0.000047 0.000071 0
-0.000021 0.000097 0
0.000013 0.000109 0
0.000047 0.000103 0
0.000075 0.000082 0
0.000092 0.000055 0
0.000099 0.000028 0
0.000099 0.000008 0
0.000095 -0.000005 0
0.000090 -0.000012 0
0.000085 -0.000013 0
0.000080 -0.000010 0
0.000078 -0.000004 0
0.000078 -0.000001 0
0.000000 -0.000000 0
-0.000015 -0.000043 0
-0.000030 -0.000040 0
-0.000044 -0.000030 0
-0.000054 -0.000015 0
-0.000057 0.000005 0
-0.000053 0.000028 0
-0.000039 0.000051 0
-0.000015 0.000069 0
0.000014 0.000077 0
0.000044 0.000073 0
0.000070 0.000060 0
0.000087 0.000042 0
0.000097 0.000023 0
0.000099 0.000008 0
0.000098 -0.000002 0
0.000094 -0.000007 0
0.000090 -0.000008 0
0.000087 -0.000007 0
0.000085 -0.000003 0
0.000085 -0.000001 0
0.000000 -0.000000 0
-0.000014 -0.000028 0
-0.000029 -0.000026 0
-0.000042 -0.000019 0
-0.000050 -0.000009 0
-0.000052 0.000004 0
-0.000047 0.000019 0
-0.000033 0.000033 0
-0.000012 0.000044 0
0.000015 0.000049 0
0.000042 0.000047 0
0.000066 0.000039 0
0.000084 0.000028 0
0.000094 0.000016 0
0.000099 0.000006 0
0.000099 -0.000000 0
0.000097 -0.000004 0
0.000094 -0.000005 0
0.000091 -0.000004 0
0.000089 -0.000002 0
0.000089 -0.000001 0
0.000000 -0.000000 0
-0.000014 -0.000013 0
-0.000028 -0.000012 0
-0.000040 -0.000009 0
-0.000047 -0.000004 0
-0.000049 0.000002 0
-0.000043 0.000009 0
-0.000030 0.000016 0
-0.000010 0.000021 0
0.000014 0.000023 0
0.000039 0.000022 0
0.000061 0.000019 0
0.000078 0.000013 0
0.000089 0.000008 0
0.000094 0.000003 0
0.000095 -0.000000 0
0.000094 -0.000002 0
0.000091 -0.000002 0
0.000089 -0.000002 0
0.000087 -0.000001 0
0.000086 -0.000000 0
0.000000 0.000000 0
0.000000 0.000000 0
-0.000000 0.000000 0
-0.000000 0.000000 0
-0.000000 0.000000 0
-0.000000 0.000000 0
-0.000000 0.000000 0
-0.000000 0.000000 0
0.000000 0.000000 0
0.000000 0.000000 0
0.000000 0.000000 0
0.000000 0.000000 0
0.000000 0.000000 0
0.000000 0.000000 0
0.000000 0.000000 0
0.000000 0.000000 0
0.000000 0.000000 0
0.000000 0.000000 0
0.000000 0.000000 0
0.000000 0.000000 0
0.000000 0.000000 0

CELL_DATA 400 
SCALARS pressure float 1 
LOOKUP_TABLE default 
0.242582
0.242598
0.242632
0.242655
0.242653
0.242633
0.242610
0.242594
0.242592
0.242599
0.242610
0.242618
0.242623
0.242623
0.242622
0.242620
0.242619
0.242620
0.242620
0.242621
0.219618
0.219634
0.219631
0.219617
0.219603
0.219597
0.219601
0.219610
0.219618
0.219623
0.219623
0.219621
0.219619
0.219617
0.219616
0.219617
0.219618
0.219619
0.219620
0.219621
0.196640
0.196620
0.196598
0.196591
0.196600
0.196615
0.196628
0.196633
0.196629
0.196622
0.196616
0.196612
0.196612
0.196614
0.196616
0.196618
0.196619
0.196620
0.196621
0.196621
0.173623
0.173603
0.173599
0.173609
0.173623
0.173632
0.173632
0.173626
0.173618
0.173612
0.173610
0.173611
0.173614
0.173617
0.173619
0.173620
0.173620
0.173621
0.173621
0.173621
0.150612
0.150613
0.150619
0.150623
0.150623
0.150621
0.150617
0.150613
0.150612
0.150613
0.150614
0.150616
0.150618
0.150618
0.150619
0.150619
0.150620
0.150620
0.150621
0.150621
0.127621
0.127625
0.127621
0.127615
0.127610
0.127610
0.127612
0.127615
0.127618
0.127619
0.127619
0.127618
0.127617
0.127617
0.127618
0.127619
0.127619
0.127620
0.127621
0.127621
0.104627
0.104623
0.104614
0.104609
0.104609
0.104613
0.104618
0.104621
0.104622
0.104620
0.104618
0.104616
0.104616
0.104617
0.104618
0.104619
0.104620
0.104621
0.104621
0.104622
0.081623
0.081618
0.081615
0.081615
0.081617
0.081619
0.081621
0.081620
0.081619
0.081617
0.081616
0.081616
0.081617
0.081618
0.081619
0.081620
0.081621
0.081621
0.081621
0.081622
0.058619
0.058621
0.058621
0.058621
0.058619
0.058618
0.058617
0.058617
0.058618
0.058618
0.058618
0.058619
0.058619
0.058620
0.058620
0.058621
0.058621
0.058621
0.058622
0.058622
0.035622
0.035625
0.035624
0.035621
0.035618
0.035617
0.035617
0.035619
0.035620
0.035621
0.035621
0.035621
0.035621
0.035621
0.035621
0.035621
0.035621
0.035622
0.035622
0.035622
0.012624
0.012625
0.012623
0.012621
0.012619
0.012619
0.012621
0.012622
0.012623
0.012623
0.012623
0.012622
0.012622
0.012622
0.012622
0.012622
0.012622
0.012622
0.012622
0.012622
-0.010376
-0.010376
-0.010376
-0.010377
-0.010377
-0.010377
-0.010376
-0.010376
-0.010375
-0.010375
-0.010376
-0.010376
-0.010376
-0.010377
-0.010377
-0.010377
-0.010377
-0.010377
-0.010377
-0.010377
-0.033376
-0.033375
-0.033374
-0.033374
-0.033374
-0.033375
-0.033375
-0.033375
-0.033374
-0.033374
-0.033374
-0.033374
-0.033374
-0.033375
-0.033376
-0.033376
-0.033376
-0.033377
-0.033377
-0.033377
-0.056375
-0.056373
-0.056372
-0.056372
-0.056373
-0.056374
-0.056374
-0.056373
-0.056372
-0.056372
-0.056372
-0.056372
-0.056373
-0.056374
-0.056375
-0.056375
-0.056376
-0.056376
-0.056377
-0.056377
-0.079374
-0.079373
-0.079372
-0.079372
-0.079372
-0.079373
-0.079372
-0.079372
-0.079371
-0.079371
-0.079371
-0.079371
-0.079372
-0.079373
-0.079374
-0.079374
-0.079375
-0.079376
-0.079376
-0.079377
-0.102373
-0.102373
-0.102372
-0.102371
-0.102371
-0.102371
-0.102371
-0.102370
-0.102370
-0.102370
-0.102370
-0.102371
-0.102371
-0.102372
-0.102373
-0.102374
-0.102375
-0.102375
-0.102376
-0.102377
-0.125373
-0.125372
-0.125371
-0.125370
-0.125370
-0.125370
-0.125370
-0.125370
-0.125370
-0.125370
-0.125370
-0.125370
-0.125371
-0.125372
-0.125372
-0.125373
-0.125374
-0.125375
-0.125376
-0.125376
-0.148372
-0.148372
-0.148371
-0.148370
-0.148370
-0.148370
-0.148370
-0.148370
-0.148369
-0.148369
-0.148369
-0.148370
-0.148370
-0.148371
-0.148372
-0.148373
-0.148374
-0.148375
-0.148375
-0.148376
-0.171372
-0.171371
-0.171371
-0.171370
-0.171370
-0.171369
-0.171369
-0.171369
-0.171369
-0.171369
-0.171369
-0.171370
-0.171370
-0.171371
-0.171372
-0.171373
-0.171374
-0.171374
-0.171375
-0.171376
-0.194371
-0.194371
-0.194371
-0.194370
-0.194369
-0.194369
-0.194368
-0.194368
-0.194368
-0.194368
-0.194369
-0.194369
-0.194370
-0.194371
-0.194371
-0.194372
-0.194373
-0.194374
-0.194375
-0.194376

SCALARS temperature float 1 
LOOKUP_TABLE default 
0.000009
0.000077
0.000211
0.000402
0.000636
0.000891
0.001137
0.001341
0.001476
0.001524
0.001484
0.001369
0.001202
0.001013
0.000825
0.000658
0.000521
0.000420
0.000354
0.000321
0.000010
0.000088
0.000241
0.000461
0.000731
0.001027
0.001312
0.001550
0.001706
0.001759
0.001708
0.001569
0.001372
0.001150
0.000931
0.000738
0.000582
0.000467
0.000392
0.000355
0.000013
0.000112
0.000306
0.000588
0.000937
0.001323
0.001698
0.002011
0.002214
0.002277
0.002199
0.002004
0.001735
0.001438
0.001152
0.000904
0.000706
0.000561
0.000468
0.000423
0.000018
0.000151
0.000415
0.000803
0.001291
0.001837
0.002375
0.002826
0.003114
0.003192
0.003059
0.002756
0.002353
0.001920
0.001515
0.001170
0.000901
0.000708
0.000586
0.000527
0.000025
0.000210
0.000581
0.001134
0.001843
0.002652
0.003464
0.004150
0.004583
0.004681
0.004442
0.003945
0.003309
0.002649
0.002049
0.001554
0.001177
0.000912
0.000747
0.000668
0.000035
0.000292
0.000814
0.001606
0.002647
0.003864
0.005114
0.006188
0.006860
0.006980
0.006549
0.005716
0.004693
0.003673
0.002778
0.002064
0.001536
0.001173
0.000951
0.000845
0.000047
0.000397
0.001116
0.002230
0.003734
0.005547
0.007469
0.009156
0.010211
0.010352
0.009588
0.008200
0.006570
0.005013
0.003702
0.002691
0.001966
0.001479
0.001186
0.001049
0.000062
0.000518
0.001471
0.002979
0.005077
0.007695
0.010572
0.013173
0.014809
0.014967
0.013663
0.011422
0.008912
0.006619
0.004769
0.003393
0.002435
0.001807
0.001435
0.001262
0.000076
0.000641
0.001836
0.003769
0.006535
0.010114
0.014196
0.018011
0.020443
0.020607
0.018536
0.015140
0.011500
0.008322
0.005859
0.004089
0.002889
0.002120
0.001669
0.001463
0.000088
0.000745
0.002147
0.004451
0.007830
0.012336
0.017647
0.022764
0.026072
0.026235
0.023303
0.018655
0.013853
0.009814
0.006785
0.004668
0.003261
0.002373
0.001859
0.001624
0.000096
0.000806
0.002330
0.004857
0.008610
0.013701
0.019818
0.025818
0.029734
0.029899
0.026371
0.020871
0.015304
0.010717
0.007341
0.005015
0.003486
0.002528
0.001975
0.001724
0.000096
0.000809
0.002339
0.004871
0.008624
0.013706
0.019802
0.025776
0.029681
0.029855
0.026356
0.020890
0.015347
0.010769
0.007392
0.005060
0.003524
0.002560
0.002003
0.001749
0.000090
0.000757
0.002177
0.004500
0.007888
0.012382
0.017655
0.022726
0.026016
0.026205
0.023336
0.018759
0.014005
0.009981
0.006942
0.004805
0.003376
0.002469
0.001941
0.001699
0.000079
0.000664
0.001894
0.003869
0.006672
0.010269
0.014344
0.018144
0.020579
0.020778
0.018765
0.015425
0.011814
0.008630
0.006135
0.004324
0.003082
0.002279
0.001806
0.001587
0.000066
0.000553
0.001563
0.003148
0.005327
0.008019
0.010950
0.013592
0.015266
0.015462
0.014190
0.011963
0.009435
0.007094
0.005177
0.003730
0.002708
0.002031
0.001625
0.001436
0.000053
0.000446
0.001248
0.002477
0.004115
0.006066
0.008112
0.009902
0.011030
0.011213
0.010451
0.009027
0.007325
0.005669
0.004249
0.003134
0.002320
0.001767
0.001429
0.001270
0.000042
0.000356
0.000987
0.001934
0.003162
0.004579
0.006021
0.007254
0.008033
0.008198
0.007745
0.006830
0.005681
0.004512
0.003465
0.002613
0.001971
0.001524
0.001246
0.001114
0.000034
0.000288
0.000795
0.001542
0.002490
0.003559
0.004622
0.005517
0.006089
0.006235
0.005954
0.005337
0.004528
0.003671
0.002877
0.002211
0.001695
0.001328
0.001096
0.000984
0.000029
0.000245
0.000672
0.001295
0.002073
0.002938
0.003785
0.004494
0.004950
0.005084
0.004891
0.004433
0.003812
0.003136
0.002494
0.001942
0.001506
0.001192
0.000991
0.000893
0.000026
0.000224
0.000613
0.001176
0.001876
0.002647
0.003398
0.004024
0.004429
0.004556
0.004400
0.004011
0.003473
0.002878
0.002306
0.001808
0.001412
0.001123
0.000937
0.000847


SCALARS Species_1 float 1 
LOOKUP_TABLE default 
0.000591
0.001774
0.002962
0.004154
0.005342
0.006511
0.007642
0.008710
0.009687
0.010548
0.011273
0.011847
0.012270
0.012548
0.012702
0.012757
0.012746
0.012702
0.012655
0.012625
0.000596
0.001790
0.002988
0.004190
0.005387
0.006565
0.007704
0.008779
0.009763
0.010630
0.011360
0.011939
0.012365
0.012646
0.012802
0.012859
0.012850
0.012807
0.012760
0.012731
0.000605
0.001817
0.003034
0.004253
0.005467
0.006662
0.007817
0.008906
0.009903
0.010782
0.011521
0.012108
0.012540
0.012826
0.012985
0.013044
0.013035
0.012993
0.012946
0.012917
0.000617
0.001852
0.003092
0.004334
0.005570
0.006786
0.007961
0.009068
0.010082
0.010975
0.011727
0.012324
0.012764
0.013055
0.013217
0.013278
0.013271
0.013229
0.013182
0.013153
0.000629
0.001889
0.003152
0.004417
0.005676
0.006914
0.008109
0.009236
0.010268
0.011176
0.011941
0.012548
0.012995
0.013292
0.013458
0.013520
0.013514
0.013472
0.013425
0.013395
0.000639
0.001919
0.003203
0.004487
0.005765
0.007021
0.008234
0.009377
0.010423
0.011344
0.012119
0.012735
0.013189
0.013490
0.013659
0.013723
0.013717
0.013675
0.013628
0.013599
0.000645
0.001938
0.003233
0.004529
0.005818
0.007085
0.008307
0.009460
0.010513
0.011442
0.012222
0.012843
0.013301
0.013604
0.013775
0.013841
0.013835
0.013794
0.013747
0.013718
0.000646
0.001938
0.003234
0.004530
0.005818
0.007083
0.008305
0.009456
0.010508
0.011435
0.012215
0.012834
0.013292
0.013596
0.013766
0.013833
0.013829
0.013788
0.013742
0.013713
0.000638
0.001917
0.003197
0.004478
0.005752
0.007002
0.008209
0.009345
0.010385
0.011300
0.012071
0.012683
0.013135
0.013436
0.013605
0.013672
0.013668
0.013629
0.013584
0.013556
0.000623
0.001871
0.003121
0.004371
0.005614
0.006834
0.008011
0.009120
0.010134
0.011027
0.011778
0.012375
0.012816
0.013111
0.013277
0.013343
0.013341
0.013304
0.013261
0.013233
0.000600
0.001802
0.003005
0.004209
0.005405
0.006580
0.007713
0.008780
0.009756
0.010615
0.011338
0.011914
0.012339
0.012623
0.012784
0.012849
0.012848
0.012813
0.012773
0.012747
0.000570
0.001711
0.002854
0.003998
0.005134
0.006249
0.007325
0.008339
0.009265
0.010081
0.010768
0.011315
0.011720
0.011991
0.012145
0.012208
0.012209
0.012177
0.012139
0.012115
0.000534
0.001604
0.002676
0.003748
0.004813
0.005859
0.006868
0.007818
0.008687
0.009452
0.010097
0.010611
0.010991
0.011247
0.011393
0.011453
0.011455
0.011426
0.011392
0.011370
0.000495
0.001487
0.002480
0.003474
0.004462
0.005431
0.006367
0.007248
0.008054
0.008765
0.009363
0.009841
0.010195
0.010433
0.010570
0.010628
0.010631
0.010606
0.010574
0.010554
0.000455
0.001366
0.002280
0.003193
0.004102
0.004993
0.005854
0.006665
0.007407
0.008061
0.008613
0.009053
0.009380
0.009601
0.009729
0.009784
0.009788
0.009765
0.009737
0.009719
0.000417
0.001251
0.002087
0.002924
0.003756
0.004573
0.005362
0.006105
0.006786
0.007386
0.007893
0.008298
0.008600
0.008804
0.008923
0.008974
0.008980
0.008960
0.008935
0.008919
0.000382
0.001148
0.001916
0.002684
0.003448
0.004199
0.004923
0.005607
0.006232
0.006785
0.007252
0.007626
0.007904
0.008093
0.008204
0.008253
0.008259
0.008242
0.008219
0.008205
0.000354
0.001064
0.001776
0.002489
0.003198
0.003894
0.004567
0.005201
0.005783
0.006296
0.006731
0.007079
0.007339
0.007516
0.007620
0.007666
0.007673
0.007658
0.007637
0.007624
0.000335
0.001005
0.001678
0.002351
0.003021
0.003680
0.004316
0.004916
0.005466
0.005952
0.006364
0.006694
0.006941
0.007109
0.007208
0.007253
0.007260
0.007246
0.007227
0.007215
0.000324
0.000974
0.001627
0.002280
0.002930
0.003569
0.004186
0.004768
0.005302
0.005774
0.006174
0.006495
0.006735
0.006899
0.006996
0.007040
0.007047
0.007034
0.007016
0.007004


SCALARS Species_2 float 1 
LOOKUP_TABLE default 
0.000307
0.000905
0.001460
0.001948
0.002349
0.002649
0.002843
0.002932
0.002923
0.002828
0.002665
0.002452
0.002209
0.001953
0.001703
0.001473
0.001276
0.001120
0.001012
0.000957
0.000322
0.000952
0.001536
0.002049
0.002470
0.002786
0.002990
0.003084
0.003074
0.002975
0.002804
0.002580
0.002325
0.002057
0.001794
0.001553
0.001345
0.001181
0.001068
0.001010
0.000353
0.001043
0.001683
0.002245
0.002706
0.003052
0.003275
0.003377
0.003367
0.003258
0.003071
0.002827
0.002547
0.002254
0.001966
0.001702
0.001475
0.001296
0.001172
0.001109
0.000398