# vtk DataFile Version 2.0
generated by CFD-lab course output (written by Tobias Neckel) 
ASCII

DATASET STRUCTURED_GRID
DIMENSIONS  21 21 1 
POINTS 441 float

0.000000 0.000000 0
0.100000 0.000000 0
0.200000 0.000000 0
0.300000 0.000000 0
0.400000 0.000000 0
0.500000 0.000000 0
0.600000 0.000000 0
0.700000 0.000000 0
0.800000 0.000000 0
0.900000 0.000000 0
1.000000 0.000000 0
1.100000 0.000000 0
1.200000 0.000000 0
1.300000 0.000000 0
1.400000 0.000000 0
1.500000 0.000000 0
1.600000 0.000000 0
1.700000 0.000000 0
1.800000 0.000000 0
1.900000 0.000000 0
2.000000 0.000000 0
0.000000 0.100000 0
0.100000 0.100000 0
0.200000 0.100000 0
0.300000 0.100000 0
0.400000 0.100000 0
0.500000 0.100000 0
0.600000 0.100000 0
0.700000 0.100000 0
0.800000 0.100000 0
0.900000 0.100000 0
1.000000 0.100000 0
1.100000 0.100000 0
1.200000 0.100000 0
1.300000 0.100000 0
1.400000 0.100000 0
1.500000 0.100000 0
1.600000 0.100000 0
1.700000 0.100000 0
1.800000 0.100000 0
1.900000 0.100000 0
2.000000 0.100000 0
0.000000 0.200000 0
0.100000 0.200000 0
0.200000 0.200000 0
0.300000 0.200000 0
0.400000 0.200000 0
0.500000 0.200000 0
0.600000 0.200000 0
0.700000 0.200000 0
0.800000 0.200000 0
0.900000 0.200000 0
1.000000 0.200000 0
1.100000 0.200000 0
1.200000 0.200000 0
1.300000 0.200000 0
1.400000 0.200000 0
1.500000 0.200000 0
1.600000 0.200000 0
1.700000 0.200000 0
1.800000 0.200000 0
1.900000 0.200000 0
2.000000 0.200000 0
0.000000 0.300000 0
0.100000 0.300000 0
0.200000 0.300000 0
0.300000 0.300000 0
0.400000 0.300000 0
0.500000 0.300000 0
0.600000 0.300000 0
0.700000 0.300000 0
0.800000 0.300000 0
0.900000 0.300000 0
1.000000 0.300000 0
1.100000 0.300000 0
1.200000 0.300000 0
1.300000 0.300000 0
1.400000 0.300000 0
1.500000 0.300000 0
1.600000 0.300000 0
1.700000 0.300000 0
1.800000 0.300000 0
1.900000 0.300000 0
2.000000 0.300000 0
0.000000 0.400000 0
0.100000 0.400000 0
0.200000 0.400000 0
0.300000 0.400000 0
0.400000 0.400000 0
0.500000 0.400000 0
0.600000 0.400000 0
0.700000 0.400000 0
0.800000 0.400000 0
0.900000 0.400000 0
1.000000 0.400000 0
1.100000 0.400000 0
1.200000 0.400000 0
1.300000 0.400000 0
1.400000 0.400000 0
1.500000 0.400000 0
1.600000 0.400000 0
1.700000 0.400000 0
1.800000 0.400000 0
1.900000 0.400000 0
2.000000 0.400000 0
0.000000 0.500000 0
0.100000 0.500000 0
0.200000 0.500000 0
0.300000 0.500000 0
0.400000 0.500000 0
0.500000 0.500000 0
0.600000 0.500000 0
0.700000 0.500000 0
0.800000 0.500000 0
0.900000 0.500000 0
1.000000 0.500000 0
1.100000 0.500000 0
1.200000 0.500000 0
1.300000 0.500000 0
1.400000 0.500000 0
1.500000 0.500000 0
1.600000 0.500000 0
1.700000 0.500000 0
1.800000 0.500000 0
1.900000 0.500000 0
2.000000 0.500000 0
0.000000 0.600000 0
0.100000 0.600000 0
0.200000 0.600000 0
0.300000 0.600000 0
0.400000 0.600000 0
0.500000 0.600000 0
0.600000 0.600000 0
0.700000 0.600000 0
0.800000 0.600000 0
0.900000 0.600000 0
1.000000 0.600000 0
1.100000 0.600000 0
1.200000 0.600000 0
1.300000 0.600000 0
1.400000 0.600000 0
1.500000 0.600000 0
1.600000 0.600000 0
1.700000 0.600000 0
1.800000 0.600000 0
1.900000 0.600000 0
2.000000 0.600000 0
0.000000 0.700000 0
0.100000 0.700000 0
0.200000 0.700000 0
0.300000 0.700000 0
0.400000 0.700000 0
0.500000 0.700000 0
0.600000 0.700000 0
0.700000 0.700000 0
0.800000 0.700000 0
0.900000 0.700000 0
1.000000 0.700000 0
1.100000 0.700000 0
1.200000 0.700000 0
1.300000 0.700000 0
1.400000 0.700000 0
1.500000 0.700000 0
1.600000 0.700000 0
1.700000 0.700000 0
1.800000 0.700000 0
1.900000 0.700000 0
2.000000 0.700000 0
0.000000 0.800000 0
0.100000 0.800000 0
0.200000 0.800000 0
0.300000 0.800000 0
0.400000 0.800000 0
0.500000 0.800000 0
0.600000 0.800000 0
0.700000 0.800000 0
0.800000 0.800000 0
0.900000 0.800000 0
1.000000 0.800000 0
1.100000 0.800000 0
1.200000 0.800000 0
1.300000 0.800000 0
1.400000 0.800000 0
1.500000 0.800000 0
1.600000 0.800000 0
1.700000 0.800000 0
1.800000 0.800000 0
1.900000 0.800000 0
2.000000 0.800000 0
0.000000 0.900000 0
0.100000 0.900000 0
0.200000 0.900000 0
0.300000 0.900000 0
0.400000 0.900000 0
0.500000 0.900000 0
0.600000 0.900000 0
0.700000 0.900000 0
0.800000 0.900000 0
0.900000 0.900000 0
1.000000 0.900000 0
1.100000 0.900000 0
1.200000 0.900000 0
1.300000 0.900000 0
1.400000 0.900000 0
1.500000 0.900000 0
1.600000 0.900000 0
1.700000 0.900000 0
1.800000 0.900000 0
1.900000 0.900000 0
2.000000 0.900000 0
0.000000 1.000000 0
0.100000 1.000000 0
0.200000 1.000000 0
0.300000 1.000000 0
0.400000 1.000000 0
0.500000 1.000000 0
0.600000 1.000000 0
0.700000 1.000000 0
0.800000 1.000000 0
0.900000 1.000000 0
1.000000 1.000000 0
1.100000 1.000000 0
1.200000 1.000000 0
1.300000 1.000000 0
1.400000 1.000000 0
1.500000 1.000000 0
1.600000 1.000000 0
1.700000 1.000000 0
1.800000 1.000000 0
1.900000 1.000000 0
2.000000 1.000000 0
0.000000 1.100000 0
0.100000 1.100000 0
0.200000 1.100000 0
0.300000 1.100000 0
0.400000 1.100000 0
0.500000 1.100000 0
0.600000 1.100000 0
0.700000 1.100000 0
0.800000 1.100000 0
0.900000 1.100000 0
1.000000 1.100000 0
1.100000 1.100000 0
1.200000 1.100000 0
1.300000 1.100000 0
1.400000 1.100000 0
1.500000 1.100000 0
1.600000 1.100000 0
1.700000 1.100000 0
1.800000 1.100000 0
1.900000 1.100000 0
2.000000 1.100000 0
0.000000 1.200000 0
0.100000 1.200000 0
0.200000 1.200000 0
0.300000 1.200000 0
0.400000 1.200000 0
0.500000 1.200000 0
0.600000 1.200000 0
0.700000 1.200000 0
0.800000 1.200000 0
0.900000 1.200000 0
1.000000 1.200000 0
1.100000 1.200000 0
1.200000 1.200000 0
1.300000 1.200000 0
1.400000 1.200000 0
1.500000 1.200000 0
1.600000 1.200000 0
1.700000 1.200000 0
1.800000 1.200000 0
1.900000 1.200000 0
2.000000 1.200000 0
0.000000 1.300000 0
0.100000 1.300000 0
0.200000 1.300000 0
0.300000 1.300000 0
0.400000 1.300000 0
0.500000 1.300000 0
0.600000 1.300000 0
0.700000 1.300000 0
0.800000 1.300000 0
0.900000 1.300000 0
1.000000 1.300000 0
1.100000 1.300000 0
1.200000 1.300000 0
1.300000 1.300000 0
1.400000 1.300000 0
1.500000 1.300000 0
1.600000 1.300000 0
1.700000 1.300000 0
1.800000 1.300000 0
1.900000 1.300000 0
2.000000 1.300000 0
0.000000 1.400000 0
0.100000 1.400000 0
0.200000 1.400000 0
0.300000 1.400000 0
0.400000 1.400000 0
0.500000 1.400000 0
0.600000 1.400000 0
0.700000 1.400000 0
0.800000 1.400000 0
0.900000 1.400000 0
1.000000 1.400000 0
1.100000 1.400000 0
1.200000 1.400000 0
1.300000 1.400000 0
1.400000 1.400000 0
1.500000 1.400000 0
1.600000 1.400000 0
1.700000 1.400000 0
1.800000 1.400000 0
1.900000 1.400000 0
2.000000 1.400000 0
0.000000 1.500000 0
0.100000 1.500000 0
0.200000 1.500000 0
0.300000 1.500000 0
0.400000 1.500000 0
0.500000 1.500000 0
0.600000 1.500000 0
0.700000 1.500000 0
0.800000 1.500000 0
0.900000 1.500000 0
1.000000 1.500000 0
1.100000 1.500000 0
1.200000 1.500000 0
1.300000 1.500000 0
1.400000 1.500000 0
1.500000 1.500000 0
1.600000 1.500000 0
1.700000 1.500000 0
1.800000 1.500000 0
1.900000 1.500000 0
2.000000 1.500000 0
0.000000 1.600000 0
0.100000 1.600000 0
0.200000 1.600000 0
0.300000 1.600000 0
0.400000 1.600000 0
0.500000 1.600000 0
0.600000 1.600000 0
0.700000 1.600000 0
0.800000 1.600000 0
0.900000 1.600000 0
1.000000 1.600000 0
1.100000 1.600000 0
1.200000 1.600000 0
1.300000 1.600000 0
1.400000 1.600000 0
1.500000 1.600000 0
1.600000 1.600000 0
1.700000 1.600000 0
1.800000 1.600000 0
1.900000 1.600000 0
2.000000 1.600000 0
0.000000 1.700000 0
0.100000 1.700000 0
0.200000 1.700000 0
0.300000 1.700000 0
0.400000 1.700000 0
0.500000 1.700000 0
0.600000 1.700000 0
0.700000 1.700000 0
0.800000 1.700000 0
0.900000 1.700000 0
1.000000 1.700000 0
1.100000 1.700000 0
1.200000 1.700000 0
1.300000 1.700000 0
1.400000 1.700000 0
1.500000 1.700000 0
1.600000 1.700000 0
1.700000 1.700000 0
1.800000 1.700000 0
1.900000 1.700000 0
2.000000 1.700000 0
0.000000 1.800000 0
0.100000 1.800000 0
0.200000 1.800000 0
0.300000 1.800000 0
0.400000 1.800000 0
0.500000 1.800000 0
0.600000 1.800000 0
0.700000 1.800000 0
0.800000 1.800000 0
0.900000 1.800000 0
1.000000 1.800000 0
1.100000 1.800000 0
1.200000 1.800000 0
1.300000 1.800000 0
1.400000 1.800000 0
1.500000 1.800000 0
1.600000 1.800000 0
1.700000 1.800000 0
1.800000 1.800000 0
1.900000 1.800000 0
2.000000 1.800000 0
0.000000 1.900000 0
0.100000 1.900000 0
0.200000 1.900000 0
0.300000 1.900000 0
0.400000 1.900000 0
0.500000 1.900000 0
0.600000 1.900000 0
0.700000 1.900000 0
0.800000 1.900000 0
0.900000 1.900000 0
1.000000 1.900000 0
1.100000 1.900000 0
1.200000 1.900000 0
1.300000 1.900000 0
1.400000 1.900000 0
1.500000 1.900000 0
1.600000 1.900000 0
1.700000 1.900000 0
1.800000 1.900000 0
1.900000 1.900000 0
2.000000 1.900000 0
0.000000 2.000000 0
0.100000 2.000000 0
0.200000 2.000000 0
0.300000 2.000000 0
0.400000 2.000000 0
0.500000 2.000000 0
0.600000 2.000000 0
0.700000 2.000000 0
0.800000 2.000000 0
0.900000 2.000000 0
1.000000 2.000000 0
1.100000 2.000000 0
1.200000 2.000000 0
1.300000 2.000000 0
1.400000 2.000000 0
1.500000 2.000000 0
1.600000 2.000000 0
1.700000 2.000000 0
1.800000 2.000000 0
1.900000 2.000000 0
2.000000 2.000000 0
POINT_DATA 441 

VECTORS velocity float
0.000000 0.000000 0
-0.000013 0.000000 0
-0.000009 0.000000 0
0.000001 0.000000 0
0.000007 0.000000 0
0.000008 0.000000 0
0.000005 0.000000 0
0.000000 0.000000 0
-0.000003 0.000000 0
-0.000004 0.000000 0
-0.000003 0.000000 0
-0.000001 0.000000 0
0.000000 0.000000 0
0.000001 0.000000 0
0.000001 0.000000 0
0.000001 0.000000 0
0.000000 0.000000 0
-0.000000 0.000000 0
-0.000000 0.000000 0
-0.000000 0.000000 0
-0.000000 0.000000 0
0.000000 -0.000014 0
0.000022 -0.000037 0
0.000058 -0.000024 0
0.000089 -0.000007 0
0.000108 0.000005 0
0.000111 0.000011 0
0.000098 0.000014 0
0.000072 0.000018 0
0.000035 0.000025 0
-0.000008 0.000032 0
-0.000054 0.000037 0
-0.000097 0.000038 0
-0.000134 0.000033 0
-0.000164 0.000026 0
-0.000185 0.000018 0
-0.000199 0.000010 0
-0.000205 0.000004 0
-0.000208 0.000001 0
-0.000207 -0.000001 0
-0.000206 -0.000001 0
-0.000206 -0.000000 0
0.000000 0.000001 0
0.000034 -0.000057 0
0.000070 -0.000050 0
0.000097 -0.000037 0
0.000112 -0.000022 0
0.000114 -0.000001 0
0.000103 0.000025 0
0.000077 0.000053 0
0.000038 0.000077 0
-0.000011 0.000092 0
-0.000064 0.000094 0
-0.000115 0.000086 0
-0.000158 0.000071 0
-0.000191 0.000052 0
-0.000213 0.000034 0
-0.000226 0.000019 0
-0.000232 0.000008 0
-0.000233 0.000001 0
-0.000233 -0.000002 0
-0.000232 -0.000001 0
-0.000231 -0.000001 0
0.000000 0.000007 0
0.000038 -0.000090 0
0.000070 -0.000092 0
0.000097 -0.000073 0
0.000116 -0.000039 0
0.000123 0.000006 0
0.000114 0.000054 0
0.000087 0.000098 0
0.000043 0.000131 0
-0.000012 0.000147 0
-0.000071 0.000145 0
-0.000125 0.000129 0
-0.000169 0.000105 0
-0.000200 0.000076 0
-0.000220 0.000050 0
-0.000230 0.000028 0
-0.000233 0.000012 0
-0.000233 0.000002 0
-0.000231 -0.000002 0
-0.000229 -0.000002 0
-0.000229 -0.000001 0
0.000000 -0.000001 0
0.000035 -0.000132 0
0.000073 -0.000132 0
0.000107 -0.000097 0
0.000132 -0.000044 0
0.000142 0.000017 0
0.000132 0.000080 0
0.000101 0.000137 0
0.000050 0.000179 0
-0.000013 0.000201 0
-0.000079 0.000199 0
-0.000137 0.000177 0
-0.000181 0.000142 0
-0.000211 0.000102 0
-0.000226 0.000064 0
-0.000232 0.000034 0
-0.000232 0.000012 0
-0.000228 -0.000000 0
-0.000224 -0.000005 0
-0.000221 -0.000003 0
-0.000221 -0.000001 0
0.000000 -0.000004 0
0.000036 -0.000172 0
0.000082 -0.000167 0
0.000121 -0.000122 0
0.000150 -0.000059 0
0.000161 0.000016 0
0.000152 0.000097 0
0.000117 0.000175 0
0.000060 0.000236 0
-0.000012 0.000267 0
-0.000086 0.000265 0
-0.000149 0.000232 0
-0.000195 0.000181 0
-0.000222 0.000124 0
-0.000233 0.000073 0
-0.000233 0.000034 0
-0.000227 0.000008 0
-0.000220 -0.000006 0
-0.000213 -0.000009 0
-0.000209 -0.000005 0
-0.000209 -0.000001 0
0.000000 -0.000000 0
0.000041 -0.000211 0
0.000089 -0.000208 0
0.000131 -0.000159 0
0.000163 -0.000086 0
0.000179 0.000008 0
0.000172 0.000116 0
0.000137 0.000223 0
0.000074 0.000307 0
-0.000008 0.000348 0
-0.000092 0.000340 0
-0.000162 0.000290 0
-0.000208 0.000217 0
-0.000231 0.000140 0
-0.000235 0.000075 0
-0.000229 0.000027 0
-0.000217 -0.000002 0
-0.000205 -0.000015 0
-0.000196 -0.000016 0
-0.000191 -0.000007 0
-0.000190 -0.000002 0
0.000000 0.000002 0
0.000041 -0.000254 0
0.000088 -0.000258 0
0.000132 -0.000203 0
0.000167 -0.000116 0
0.000189 0.000001 0
0.000187 0.000138 0
0.000153 0.000277 0
0.000086 0.000386 0
-0.000004 0.000438 0
-0.000096 0.000421 0
-0.000169 0.000348 0
-0.000213 0.000248 0
-0.000229 0.000150 0
-0.000226 0.000070 0
-0.000213 0.000015 0
-0.000197 -0.000016 0
-0.000182 -0.000027 0
-0.000171 -0.000024 0
-0.000165 -0.000010 0
-0.000165 -0.000002 0
0.000000 0.000000 0
0.000036 -0.000299 0
0.000079 -0.000305 0
0.000122 -0.000244 0
0.000158 -0.000145 0
0.000182 -0.000008 0
0.000185 0.000157 0
0.000154 0.000329 0
0.000089 0.000466 0
-0.000002 0.000530 0
-0.000093 0.000503 0
-0.000162 0.000404 0
-0.000199 0.000275 0
-0.000208 0.000153 0
-0.000199 0.000059 0
-0.000182 -0.000001 0
-0.000164 -0.000033 0
-0.000148 -0.000041 0
-0.000136 -0.000033 0
-0.000131 -0.000013 0
-0.000130 -0.000002 0
0.000000 -0.000001 0
0.000027 -0.000336 0
0.000062 -0.000344 0
0.000097 -0.000280 0
0.000127 -0.000174 0
0.000149 -0.000023 0
0.000153 0.000168 0
0.000131 0.000372 0
0.000077 0.000540 0
0.000002 0.000617 0
-0.000075 0.000580 0
-0.000130 0.000454 0
-0.000157 0.000295 0
-0.000160 0.000150 0
-0.000149 0.000045 0
-0.000133 -0.000020 0
-0.000116 -0.000050 0
-0.000102 -0.000055 0
-0.000092 -0.000041 0
-0.000087 -0.000016 0
-0.000087 -0.000002 0
0.000000 -0.000000 0
0.000016 -0.000360 0
0.000036 -0.000372 0
0.000055 -0.000307 0
0.000073 -0.000198 0
0.000086 -0.000037 0
0.000091 0.000172 0
0.000079 0.000403 0
0.000049 0.000595 0
0.000005 0.000683 0
-0.000039 0.000636 0
-0.000071 0.000488 0
-0.000085 0.000305 0
-0.000084 0.000145 0
-0.000076 0.000031 0
-0.000065 -0.000035 0
-0.000055 -0.000063 0
-0.000046 -0.000065 0
-0.000040 -0.000047 0
-0.000037 -0.000019 0
-0.000037 -0.000003 0
0.000000 0.000000 0
0.000001 -0.000369 0
0.000003 -0.000383 0
0.000004 -0.000319 0
0.000004 -0.000208 0
0.000005 -0.000043 0
0.000007 0.000174 0
0.000008 0.000414 0
0.000009 0.000616 0
0.000008 0.000707 0
0.000008 0.000657 0
0.000008 0.000499 0
0.000009 0.000308 0
0.000010 0.000141 0
0.000012 0.000025 0
0.000013 -0.000041 0
0.000015 -0.000069 0
0.000016 -0.000069 0
0.000018 -0.000050 0
0.000018 -0.000020 0
0.000018 -0.000003 0
0.000000 0.000000 0
-0.000014 -0.000362 0
-0.000031 -0.000375 0
-0.000049 -0.000311 0
-0.000065 -0.000200 0
-0.000077 -0.000039 0
-0.000079 0.000171 0
-0.000065 0.000402 0
-0.000033 0.000595 0
0.000011 0.000683 0
0.000055 0.000636 0
0.000088 0.000486 0
0.000104 0.000303 0
0.000106 0.000142 0
0.000101 0.000028 0
0.000093 -0.000038 0
0.000086 -0.000066 0
0.000080 -0.000067 0
0.000076 -0.000049 0
0.000074 -0.000019 0
0.000074 -0.000002 0
0.000000 -0.000000 0
-0.000027 -0.000339 0
-0.000059 -0.000348 0
-0.000092 -0.000285 0
-0.000121 -0.000179 0
-0.000142 -0.000028 0
-0.000145 0.000162 0
-0.000120 0.000368 0
-0.000065 0.000539 0
0.000013 0.000618 0
0.000091 0.000580 0
0.000149 0.000451 0
0.000178 0.000290 0
0.000184 0.000144 0
0.000177 0.000038 0
0.000163 -0.000026 0
0.000150 -0.000056 0
0.000139 -0.000060 0
0.000131 -0.000045 0
0.000127 -0.000018 0
0.000127 -0.000002 0
0.000000 -0.000000 0
-0.000036 -0.000303 0
-0.000080 -0.000308 0
-0.000122 -0.000248 0
-0.000158 -0.000150 0
-0.000182 -0.000016 0
-0.000182 0.000149 0
-0.000149 0.000321 0
-0.000081 0.000462 0
0.000013 0.000528 0
0.000109 0.000500 0
0.000182 0.000399 0
0.000223 0.000267 0
0.000236 0.000144 0
0.000231 0.000049 0
0.000218 -0.000011 0
0.000202 -0.000042 0
0.000189 -0.000049 0
0.000179 -0.000038 0
0.000174 -0.000015 0
0.000174 -0.000002 0
0.000000 0.000000 0
-0.000042 -0.000259 0
-0.000092 -0.000261 0
-0.000139 -0.000206 0
-0.000177 -0.000120 0
-0.000198 -0.000006 0
-0.000194 0.000130 0
-0.000156 0.000267 0
-0.000084 0.000377 0
0.000013 0.000429 0
0.000112 0.000411 0
0.000191 0.000337 0
0.000241 0.000236 0
0.000262 0.000136 0
0.000264 0.000057 0
0.000255 0.000002 0
0.000242 -0.000027 0
0.000229 -0.000037 0
0.000220 -0.000030 0
0.000214 -0.000012 0
0.000214 -0.000002 0
0.000000 -0.000000 0
-0.000045 -0.000211 0
-0.000099 -0.000210 0
-0.000147 -0.000163 0
-0.000183 -0.000091 0
-0.000201 0.000001 0
-0.000192 0.000107 0
-0.000152 0.000211 0
-0.000081 0.000293 0
0.000012 0.000332 0
0.000107 0.000322 0
0.000187 0.000270 0
0.000242 0.000196 0
0.000272 0.000120 0
0.000282 0.000057 0
0.000279 0.000011 0
0.000271 -0.000016 0
0.000260 -0.000026 0
0.000252 -0.000023 0
0.000247 -0.000010 0
0.000247 -0.000001 0
0.000000 -0.000000 0
-0.000048 -0.000160 0
-0.000104 -0.000158 0
-0.000152 -0.000121 0
-0.000187 -0.000066 0
-0.000201 0.000004 0
-0.000189 0.000081 0
-0.000147 0.000155 0
-0.000078 0.000213 0
0.000008 0.000242 0
0.000098 0.000236 0
0.000177 0.000202 0
0.000236 0.000151 0
0.000273 0.000097 0
0.000291 0.000049 0
0.000295 0.000013 0
0.000291 -0.000008 0
0.000284 -0.000018 0
0.000277 -0.000016 0
0.000273 -0.000007 0
0.000272 -0.000001 0
0.000000 -0.000000 0
-0.000051 -0.000107 0
-0.000110 -0.000105 0
-0.000159 -0.000080 0
-0.000193 -0.000043 0
-0.000205 0.000003 0
-0.000190 0.000053 0
-0.000148 0.000100 0
-0.000081 0.000137 0
0.000002 0.000155 0
0.000089 0.000153 0
0.000168 0.000132 0
0.000230 0.000101 0
0.000273 0.000066 0
0.000296 0.000035 0
0.000305 0.000011 0
0.000305 -0.000005 0
0.000299 -0.000012 0
0.000293 -0.000011 0
0.000288 -0.000005 0
0.000288 -0.000001 0
0.000000 -0.000000 0
-0.000050 -0.000051 0
-0.000107 -0.000050 0
-0.000155 -0.000038 0
-0.000187 -0.000020 0
-0.000198 0.000001 0
-0.000184 0.000024 0
-0.000145 0.000046 0
-0.000084 0.000062 0
-0.000008 0.000071 0
0.000072 0.000070 0
0.000145 0.000061 0
0.000204 0.000047 0
0.000245 0.000031 0
0.000270 0.000016 0
0.000280 0.000005 0
0.000280 -0.000002 0
0.000275 -0.000006 0
0.000269 -0.000006 0
0.000264 -0.000003 0
0.000264 -0.000000 0
0.000000 0.000000 0
-0.000000 0.000000 0
-0.000000 0.000000 0
-0.000000 0.000000 0
-0.000000 0.000000 0
-0.000000 0.000000 0
-0.000000 0.000000 0
-0.000000 0.000000 0
-0.000000 0.000000 0
-0.000000 0.000000 0
-0.000000 0.000000 0
-0.000000 0.000000 0
0.000000 0.000000 0
0.000000 0.000000 0
0.000000 0.000000 0
0.000000 0.000000 0
0.000000 0.000000 0
0.000000 0.000000 0
0.000000 0.000000 0
0.000000 0.000000 0
0.000000 0.000000 0

CELL_DATA 400 
SCALARS pressure float 1 
LOOKUP_TABLE default 
0.242574
0.242625
0.242659
0.242656
0.242627
0.242593
0.242573
0.242573
0.242586
0.242604
0.242616
0.242622
0.242620
0.242616
0.242612
0.242610
0.242610
0.242611
0.242612
0.242613
0.219631
0.219631
0.219612
0.219592
0.219585
0.219591
0.219605
0.219617
0.219623
0.219622
0.219617
0.219611
0.219608
0.219607
0.219608
0.219610
0.219611
0.219613
0.219613
0.219614
0.196628
0.196595
0.196582
0.196593
0.196615
0.196632
0.196637
0.196630
0.196618
0.196606
0.196601
0.196601
0.196604
0.196608
0.196612
0.196613
0.196614
0.196614
0.196615
0.196615
0.173602
0.173592
0.173604
0.173624
0.173636
0.173635
0.173624
0.173610
0.173601
0.173598
0.173601
0.173606
0.173611
0.173614
0.173615
0.173615
0.173614
0.173614
0.173615
0.173615
0.150606
0.150614
0.150622
0.150623
0.150618
0.150611
0.150606
0.150604
0.150606
0.150609
0.150612
0.150613
0.150614
0.150614
0.150614
0.150614
0.150614
0.150615
0.150615
0.150616
0.127624
0.127621
0.127612
0.127605
0.127603
0.127607
0.127613
0.127617
0.127618
0.127616
0.127614
0.127612
0.127611
0.127612
0.127613
0.127614
0.127615
0.127616
0.127616
0.127617
0.104625
0.104612
0.104604
0.104604
0.104611
0.104619
0.104622
0.104622
0.104618
0.104613
0.104610
0.104610
0.104611
0.104613
0.104614
0.104616
0.104616
0.104617
0.104617
0.104618
0.081618
0.081612
0.081612
0.081615
0.081619
0.081621
0.081620
0.081617
0.081614
0.081612
0.081611
0.081612
0.081614
0.081615
0.081616
0.081617
0.081617
0.081618
0.081618
0.081619
0.058618
0.058620
0.058620
0.058618
0.058616
0.058615
0.058615
0.058615
0.058616
0.058616
0.058616
0.058616
0.058617
0.058617
0.058617
0.058618
0.058618
0.058619
0.058619
0.058619
0.035624
0.035624
0.035620
0.035615
0.035614
0.035615
0.035617
0.035620
0.035621
0.035620
0.035619
0.035619
0.035618
0.035618
0.035619
0.035619
0.035620
0.035620
0.035620
0.035620
0.012626
0.012623
0.012619
0.012617
0.012618
0.012620
0.012622
0.012623
0.012623
0.012622
0.012621
0.012620
0.012620
0.012620
0.012621
0.012621
0.012621
0.012621
0.012621
0.012622
-0.010376
-0.010376
-0.010377
-0.010378
-0.010377
-0.010377
-0.010376
-0.010376
-0.010376
-0.010376
-0.010376
-0.010377
-0.010377
-0.010377
-0.010377
-0.010377
-0.010377
-0.010377
-0.010377
-0.010377
-0.033375
-0.033373
-0.033373
-0.033374
-0.033375
-0.033376
-0.033375
-0.033374
-0.033373
-0.033373
-0.033373
-0.033373
-0.033374
-0.033374
-0.033375
-0.033375
-0.033376
-0.033376
-0.033376
-0.033376
-0.056373
-0.056371
-0.056372
-0.056373
-0.056374
-0.056374
-0.056373
-0.056371
-0.056370
-0.056370
-0.056370
-0.056371
-0.056372
-0.056372
-0.056373
-0.056374
-0.056374
-0.056374
-0.056375
-0.056375
-0.079372
-0.079371
-0.079371
-0.079372
-0.079372
-0.079371
-0.079370
-0.079369
-0.079368
-0.079368
-0.079368
-0.079369
-0.079370
-0.079371
-0.079371
-0.079372
-0.079372
-0.079373
-0.079374
-0.079374
-0.102371
-0.102370
-0.102370
-0.102369
-0.102369
-0.102369
-0.102368
-0.102368
-0.102367
-0.102367
-0.102367
-0.102367
-0.102368
-0.102369
-0.102370
-0.102370
-0.102371
-0.102372
-0.102372
-0.102373
-0.125371
-0.125369
-0.125368
-0.125368
-0.125368
-0.125368
-0.125368
-0.125367
-0.125366
-0.125365
-0.125365
-0.125366
-0.125366
-0.125367
-0.125368
-0.125369
-0.125370
-0.125371
-0.125371
-0.125372
-0.148369
-0.148368
-0.148367
-0.148367
-0.148367
-0.148367
-0.148366
-0.148365
-0.148365
-0.148364
-0.148364
-0.148364
-0.148365
-0.148366
-0.148367
-0.148368
-0.148369
-0.148369
-0.148370
-0.148371
-0.171369
-0.171368
-0.171367
-0.171367
-0.171366
-0.171365
-0.171365
-0.171364
-0.171363
-0.171363
-0.171363
-0.171363
-0.171364
-0.171365
-0.171365
-0.171366
-0.171367
-0.171368
-0.171369
-0.171370
-0.194369
-0.194368
-0.194367
-0.194366
-0.194365
-0.194364
-0.194363
-0.194363
-0.194362
-0.194362
-0.194362
-0.194362
-0.194362
-0.194363
-0.194364
-0.194365
-0.194366
-0.194367
-0.194368
-0.194369

SCALARS temperature float 1 
LOOKUP_TABLE default 
0.000035
0.000267
0.000713
0.001340
0.002099
0.002924
0.003742
0.004479
0.005071
0.005471
0.005667
0.005671
0.005523
0.005269
0.004961
0.004644
0.004355
0.004119
0.003954
0.003871
0.000037
0.000283
0.000757
0.001423
0.002230
0.003110
0.003982
0.004766
0.005390
0.005803
0.005991
0.005974
0.005793
0.005504
0.005162
0.004815
0.004502
0.004249
0.004074
0.003985
0.000042
0.000317
0.000848
0.001598
0.002509
0.003506
0.004495
0.005377
0.006068
0.006506
0.006676
0.006606
0.006352
0.005984
0.005566
0.005155
0.004792
0.004502
0.004303
0.004203
0.000050
0.000372
0.000996
0.001883
0.002968
0.004162
0.005350
0.006404
0.007208
0.007682
0.007809
0.007637
0.007248
0.006738
0.006190
0.005670
0.005223
0.004874
0.004637
0.004519
0.000061
0.000451
0.001211
0.002301
0.003651
0.005152
0.006656
0.007983
0.008966
0.009485
0.009524
0.009166
0.008546
0.007802
0.007049
0.006363
0.005793
0.005358
0.005067
0.004924
0.000076
0.000556
0.001500
0.002873
0.004601
0.006556
0.008541
0.010293
0.011549
0.012119
0.011988
0.011311
0.010313
0.009207
0.008148
0.007227
0.006487
0.005937
0.005577
0.005401
0.000094
0.000686
0.001862
0.003603
0.005843
0.008435
0.011123
0.013515
0.015181
0.015804
0.015370
0.014170
0.012587
0.010948
0.009464
0.008232
0.007274
0.006582
0.006138
0.005923
0.000115
0.000832
0.002276
0.004456
0.007338
0.010769
0.014427
0.017733
0.019992
0.020662
0.019737
0.017740
0.015314
0.012954
0.010924
0.009310
0.008098
0.007247
0.006710
0.006453
0.000136
0.000978
0.002695
0.005342
0.008938
0.013362
0.018225
0.022718
0.025757
0.026464
0.024842
0.021771
0.018267
0.015036
0.012386
0.010358
0.008884
0.007874
0.007246
0.006947
0.000153
0.001099
0.003050
0.006107
0.010363
0.015760
0.021863
0.027630
0.031519
0.032252
0.029848
0.025599
0.020967
0.016874
0.013640
0.011242
0.009543
0.008398
0.007694
0.007361
0.000163
0.001173
0.003266
0.006579
0.011258
0.017311
0.024284
0.030980
0.035495
0.036253
0.033280
0.028175
0.022748
0.018073
0.014460
0.011830
0.009992
0.008763
0.008012
0.007656
0.000165
0.001186
0.003303
0.006651
0.011376
0.017493
0.024554
0.031362
0.035979
0.036758
0.033741
0.028567
0.023079
0.018357
0.014706
0.012047
0.010186
0.008940
0.008178
0.007815
0.000159
0.001141
0.003161
0.006321
0.010712
0.016287
0.022621
0.028673
0.032815
0.033621
0.031117
0.026701
0.021916
0.017699
0.014363
0.011883
0.010119
0.008924
0.008186
0.007832
0.000146
0.001047
0.002879
0.005693
0.009502
0.014189
0.019370
0.024223
0.027573
0.028392
0.026684
0.023435
0.019749
0.016355
0.013561
0.011407
0.009831
0.008741
0.008057
0.007726
0.000130
0.000929
0.002533
0.004942
0.008109
0.011871
0.015894
0.019576
0.022146
0.022957
0.021996
0.019863
0.017266
0.014727
0.012524
0.010749
0.009401
0.008443
0.007831
0.007531
0.000113
0.000810
0.002192
0.004224
0.006820
0.009808
0.012904
0.015681
0.017654
0.018441
0.018020
0.016723
0.014980
0.013151
0.011466
0.010042
0.008917
0.008093
0.007556
0.007288
0.000098
0.000708
0.001903
0.003630
0.005785
0.008204
0.010650
0.012816
0.014393
0.015148
0.015057
0.014303
0.013143
0.011825
0.010536
0.009392
0.008455
0.007748
0.007278
0.007040
0.000087
0.000630
0.001687
0.003193
0.005042
0.007081
0.009110
0.010899
0.012232
0.012958
0.013049
0.012613
0.011814
0.010830
0.009811
0.008868
0.008070
0.007454
0.007036
0.006823
0.000079
0.000579
0.001546
0.002912
0.004574
0.006386
0.008174
0.009748
0.010944
0.011648
0.011831
0.011565
0.010968
0.010178
0.009323
0.008507
0.007798
0.007242
0.006860
0.006663
0.000075
0.000553
0.001474
0.002773
0.004346
0.006053
0.007732
0.009211
0.010345
0.011037
0.011258
0.011064
0.010555
0.009853
0.009074
0.008318
0.007654
0.007128
0.006765
0.006578


SCALARS Species_1 float 1 
LOOKUP_TABLE default 
0.000506
0.001513
0.002507
0.003479
0.004422
0.005328
0.006191
0.007005
0.007763
0.008462
0.009098
0.009669
0.010174
0.010611
0.010983
0.011289
0.011532
0.011712
0.011832
0.011891
0.000505
0.001509
0.002500
0.003470
0.004411
0.005315
0.006176
0.006987
0.007744
0.008442
0.009076
0.009646
0.010149
0.010586
0.010957
0.011263
0.011505
0.011685
0.011804
0.011863
0.000502
0.001502
0.002489
0.003454
0.004391
0.005291
0.006148
0.006956
0.007709
0.008404
0.009036
0.009603
0.010104
0.010539
0.010909
0.011213
0.011454
0.011634
0.011753
0.011812
0.000499
0.001492
0.002472
0.003431
0.004362
0.005256
0.006108
0.006910
0.007659
0.008349
0.008978
0.009541
0.010039
0.010471
0.010838
0.011141
0.011381
0.011559
0.011677
0.011736
0.000495
0.001479
0.002451
0.003401
0.004323
0.005210
0.006054
0.006850
0.007593
0.008277
0.008900
0.009459
0.009953
0.010381
0.010745
0.011045
0.011282
0.011459
0.011576
0.011635
0.000489
0.001463
0.002424
0.003364
0.004276
0.005153
0.005988
0.006776
0.007510
0.008188
0.008804
0.009356
0.009845
0.010268
0.010628
0.010925
0.011160
0.011335
0.011451
0.011508
0.000483
0.001444
0.002392
0.003320
0.004220
0.005085
0.005909
0.006687
0.007412
0.008080
0.008688
0.009233
0.009715
0.010133
0.010488
0.010781
0.011013
0.011186
0.011300
0.011357
0.000475
0.001422
0.002355
0.003269
0.004155
0.005007
0.005818
0.006584
0.007297
0.007955
0.008554
0.009091
0.009565
0.009976
0.010326
0.010614
0.010843
0.011013
0.011125
0.011182
0.000467
0.001397
0.002314
0.003212
0.004082
0.004919
0.005716
0.006468
0.007169
0.007815
0.008403
0.008930
0.009395
0.009799
0.010143
0.010426
0.010651
0.010818
0.010929
0.010984
0.000458
0.001370
0.002269
0.003150
0.004003
0.004824
0.005605
0.006342
0.007029
0.007662
0.008237
0.008753
0.009210
0.009606
0.009942
0.010220
0.010441
0.010605
0.010714
0.010768
0.000448
0.001341
0.002222
0.003084
0.003919
0.004722
0.005487
0.006207
0.006879
0.007498
0.008060
0.008565
0.009011
0.009399
0.009728
0.010000
0.010217
0.010377
0.010484
0.010537
0.000438
0.001311
0.002173
0.003015
0.003832
0.004617
0.005364
0.006068
0.006723
0.007327
0.007877
0.008370
0.008805
0.009184
0.009506
0.009773
0.009984
0.010142
0.010246
0.010298
0.000428
0.001282
0.002123
0.002946
0.003744
0.004511
0.005240
0.005926
0.006566
0.007155
0.007691
0.008172
0.008598
0.008968
0.009283
0.009543
0.009750
0.009904
0.010006
0.010057
0.000419
0.001252
0.002074
0.002879
0.003658
0.004406
0.005118
0.005788
0.006412
0.006987
0.007510
0.007980
0.008396
0.008757
0.009065
0.009319
0.009521
0.009672
0.009772
0.009822
0.000409
0.001224
0.002028
0.002814
0.003576
0.004307
0.005003
0.005657
0.006267
0.006829
0.007340
0.007799
0.008205
0.008559
0.008860
0.009109
0.009306
0.009454
0.009552
0.009601
0.000401
0.001199
0.001987
0.002756
0.003502
0.004218
0.004898
0.005539
0.006136
0.006685
0.007186
0.007635
0.008033
0.008380
0.008675
0.008919
0.009113
0.009257
0.009353
0.009401
0.000394
0.001178
0.001951
0.002707
0.003439
0.004141
0.004809
0.005438
0.006024
0.006563
0.007055
0.007496
0.007887
0.008227
0.008517
0.008757
0.008948
0.009090
0.009184
0.009231
0.000388
0.001161
0.001923
0.002667
0.003389
0.004081
0.004739
0.005358
0.005935
0.006467
0.006951
0.007387
0.007772
0.008107
0.008393
0.008630
0.008818
0.008958
0.009051
0.009098
0.000384
0.001149
0.001903
0.002640
0.003354
0.004039
0.004690
0.005303
0.005874
0.006401
0.006880
0.007311
0.007692
0.008025
0.008308
0.008542
0.008728
0.008867
0.008959
0.009005
0.000382
0.001143
0.001893
0.002626
0.003336
0.004018
0.004665
0.005275
0.005843
0.006367
0.006844
0.007272
0.007652
0.007983
0.008264
0.008497
0.008682
0.008821
0.008912
0.008958


SCALARS Species_2 float 1 
LOOKUP_TABLE default 
0.000233
0.000693
0.001135
0.001550
0.001929
0.002264
0.002550
0.002786
0.002969
0.003103
0.003190
0.003237
0.003251
0.003238
0.003208
0.003168
0.003126
0.003088
0.003060
0.003045
0.000235
0.000700
0.001147
0.001566
0.001949
0.002288
0.002577
0.002816
0.003001
0.003137
0.003226
0.003273
0.003287
0.003275
0.003245
0.003205
0.003163
0.003125
0.003097
0.003082
0.000240
0.000715
0.001171
0.001600
0.001990
0.002336
0.002632
0.002876
0.003066
0.003204
0.003295
0.003344
0.003359
0.003347
0.003316
0.003276
0.003233
0.003195
0.003167
0.003151
0.000248
0.000737
0.001207