# vtk DataFile Version 2.0
generated by CFD-lab course output (written by Tobias Neckel) 
ASCII

DATASET STRUCTURED_GRID
DIMENSIONS  21 21 1 
POINTS 441 float

0.000000 0.000000 0
0.100000 0.000000 0
0.200000 0.000000 0
0.300000 0.000000 0
0.400000 0.000000 0
0.500000 0.000000 0
0.600000 0.000000 0
0.700000 0.000000 0
0.800000 0.000000 0
0.900000 0.000000 0
1.000000 0.000000 0
1.100000 0.000000 0
1.200000 0.000000 0
1.300000 0.000000 0
1.400000 0.000000 0
1.500000 0.000000 0
1.600000 0.000000 0
1.700000 0.000000 0
1.800000 0.000000 0
1.900000 0.000000 0
2.000000 0.000000 0
0.000000 0.100000 0
0.100000 0.100000 0
0.200000 0.100000 0
0.300000 0.100000 0
0.400000 0.100000 0
0.500000 0.100000 0
0.600000 0.100000 0
0.700000 0.100000 0
0.800000 0.100000 0
0.900000 0.100000 0
1.000000 0.100000 0
1.100000 0.100000 0
1.200000 0.100000 0
1.300000 0.100000 0
1.400000 0.100000 0
1.500000 0.100000 0
1.600000 0.100000 0
1.700000 0.100000 0
1.800000 0.100000 0
1.900000 0.100000 0
2.000000 0.100000 0
0.000000 0.200000 0
0.100000 0.200000 0
0.200000 0.200000 0
0.300000 0.200000 0
0.400000 0.200000 0
0.500000 0.200000 0
0.600000 0.200000 0
0.700000 0.200000 0
0.800000 0.200000 0
0.900000 0.200000 0
1.000000 0.200000 0
1.100000 0.200000 0
1.200000 0.200000 0
1.300000 0.200000 0
1.400000 0.200000 0
1.500000 0.200000 0
1.600000 0.200000 0
1.700000 0.200000 0
1.800000 0.200000 0
1.900000 0.200000 0
2.000000 0.200000 0
0.000000 0.300000 0
0.100000 0.300000 0
0.200000 0.300000 0
0.300000 0.300000 0
0.400000 0.300000 0
0.500000 0.300000 0
0.600000 0.300000 0
0.700000 0.300000 0
0.800000 0.300000 0
0.900000 0.300000 0
1.000000 0.300000 0
1.100000 0.300000 0
1.200000 0.300000 0
1.300000 0.300000 0
1.400000 0.300000 0
1.500000 0.300000 0
1.600000 0.300000 0
1.700000 0.300000 0
1.800000 0.300000 0
1.900000 0.300000 0
2.000000 0.300000 0
0.000000 0.400000 0
0.100000 0.400000 0
0.200000 0.400000 0
0.300000 0.400000 0
0.400000 0.400000 0
0.500000 0.400000 0
0.600000 0.400000 0
0.700000 0.400000 0
0.800000 0.400000 0
0.900000 0.400000 0
1.000000 0.400000 0
1.100000 0.400000 0
1.200000 0.400000 0
1.300000 0.400000 0
1.400000 0.400000 0
1.500000 0.400000 0
1.600000 0.400000 0
1.700000 0.400000 0
1.800000 0.400000 0
1.900000 0.400000 0
2.000000 0.400000 0
0.000000 0.500000 0
0.100000 0.500000 0
0.200000 0.500000 0
0.300000 0.500000 0
0.400000 0.500000 0
0.500000 0.500000 0
0.600000 0.500000 0
0.700000 0.500000 0
0.800000 0.500000 0
0.900000 0.500000 0
1.000000 0.500000 0
1.100000 0.500000 0
1.200000 0.500000 0
1.300000 0.500000 0
1.400000 0.500000 0
1.500000 0.500000 0
1.600000 0.500000 0
1.700000 0.500000 0
1.800000 0.500000 0
1.900000 0.500000 0
2.000000 0.500000 0
0.000000 0.600000 0
0.100000 0.600000 0
0.200000 0.600000 0
0.300000 0.600000 0
0.400000 0.600000 0
0.500000 0.600000 0
0.600000 0.600000 0
0.700000 0.600000 0
0.800000 0.600000 0
0.900000 0.600000 0
1.000000 0.600000 0
1.100000 0.600000 0
1.200000 0.600000 0
1.300000 0.600000 0
1.400000 0.600000 0
1.500000 0.600000 0
1.600000 0.600000 0
1.700000 0.600000 0
1.800000 0.600000 0
1.900000 0.600000 0
2.000000 0.600000 0
0.000000 0.700000 0
0.100000 0.700000 0
0.200000 0.700000 0
0.300000 0.700000 0
0.400000 0.700000 0
0.500000 0.700000 0
0.600000 0.700000 0
0.700000 0.700000 0
0.800000 0.700000 0
0.900000 0.700000 0
1.000000 0.700000 0
1.100000 0.700000 0
1.200000 0.700000 0
1.300000 0.700000 0
1.400000 0.700000 0
1.500000 0.700000 0
1.600000 0.700000 0
1.700000 0.700000 0
1.800000 0.700000 0
1.900000 0.700000 0
2.000000 0.700000 0
0.000000 0.800000 0
0.100000 0.800000 0
0.200000 0.800000 0
0.300000 0.800000 0
0.400000 0.800000 0
0.500000 0.800000 0
0.600000 0.800000 0
0.700000 0.800000 0
0.800000 0.800000 0
0.900000 0.800000 0
1.000000 0.800000 0
1.100000 0.800000 0
1.200000 0.800000 0
1.300000 0.800000 0
1.400000 0.800000 0
1.500000 0.800000 0
1.600000 0.800000 0
1.700000 0.800000 0
1.800000 0.800000 0
1.900000 0.800000 0
2.000000 0.800000 0
0.000000 0.900000 0
0.100000 0.900000 0
0.200000 0.900000 0
0.300000 0.900000 0
0.400000 0.900000 0
0.500000 0.900000 0
0.600000 0.900000 0
0.700000 0.900000 0
0.800000 0.900000 0
0.900000 0.900000 0
1.000000 0.900000 0
1.100000 0.900000 0
1.200000 0.900000 0
1.300000 0.900000 0
1.400000 0.900000 0
1.500000 0.900000 0
1.600000 0.900000 0
1.700000 0.900000 0
1.800000 0.900000 0
1.900000 0.900000 0
2.000000 0.900000 0
0.000000 1.000000 0
0.100000 1.000000 0
0.200000 1.000000 0
0.300000 1.000000 0
0.400000 1.000000 0
0.500000 1.000000 0
0.600000 1.000000 0
0.700000 1.000000 0
0.800000 1.000000 0
0.900000 1.000000 0
1.000000 1.000000 0
1.100000 1.000000 0
1.200000 1.000000 0
1.300000 1.000000 0
1.400000 1.000000 0
1.500000 1.000000 0
1.600000 1.000000 0
1.700000 1.000000 0
1.800000 1.000000 0
1.900000 1.000000 0
2.000000 1.000000 0
0.000000 1.100000 0
0.100000 1.100000 0
0.200000 1.100000 0
0.300000 1.100000 0
0.400000 1.100000 0
0.500000 1.100000 0
0.600000 1.100000 0
0.700000 1.100000 0
0.800000 1.100000 0
0.900000 1.100000 0
1.000000 1.100000 0
1.100000 1.100000 0
1.200000 1.100000 0
1.300000 1.100000 0
1.400000 1.100000 0
1.500000 1.100000 0
1.600000 1.100000 0
1.700000 1.100000 0
1.800000 1.100000 0
1.900000 1.100000 0
2.000000 1.100000 0
0.000000 1.200000 0
0.100000 1.200000 0
0.200000 1.200000 0
0.300000 1.200000 0
0.400000 1.200000 0
0.500000 1.200000 0
0.600000 1.200000 0
0.700000 1.200000 0
0.800000 1.200000 0
0.900000 1.200000 0
1.000000 1.200000 0
1.100000 1.200000 0
1.200000 1.200000 0
1.300000 1.200000 0
1.400000 1.200000 0
1.500000 1.200000 0
1.600000 1.200000 0
1.700000 1.200000 0
1.800000 1.200000 0
1.900000 1.200000 0
2.000000 1.200000 0
0.000000 1.300000 0
0.100000 1.300000 0
0.200000 1.300000 0
0.300000 1.300000 0
0.400000 1.300000 0
0.500000 1.300000 0
0.600000 1.300000 0
0.700000 1.300000 0
0.800000 1.300000 0
0.900000 1.300000 0
1.000000 1.300000 0
1.100000 1.300000 0
1.200000 1.300000 0
1.300000 1.300000 0
1.400000 1.300000 0
1.500000 1.300000 0
1.600000 1.300000 0
1.700000 1.300000 0
1.800000 1.300000 0
1.900000 1.300000 0
2.000000 1.300000 0
0.000000 1.400000 0
0.100000 1.400000 0
0.200000 1.400000 0
0.300000 1.400000 0
0.400000 1.400000 0
0.500000 1.400000 0
0.600000 1.400000 0
0.700000 1.400000 0
0.800000 1.400000 0
0.900000 1.400000 0
1.000000 1.400000 0
1.100000 1.400000 0
1.200000 1.400000 0
1.300000 1.400000 0
1.400000 1.400000 0
1.500000 1.400000 0
1.600000 1.400000 0
1.700000 1.400000 0
1.800000 1.400000 0
1.900000 1.400000 0
2.000000 1.400000 0
0.000000 1.500000 0
0.100000 1.500000 0
0.200000 1.500000 0
0.300000 1.500000 0
0.400000 1.500000 0
0.500000 1.500000 0
0.600000 1.500000 0
0.700000 1.500000 0
0.800000 1.500000 0
0.900000 1.500000 0
1.000000 1.500000 0
1.100000 1.500000 0
1.200000 1.500000 0
1.300000 1.500000 0
1.400000 1.500000 0
1.500000 1.500000 0
1.600000 1.500000 0
1.700000 1.500000 0
1.800000 1.500000 0
1.900000 1.500000 0
2.000000 1.500000 0
0.000000 1.600000 0
0.100000 1.600000 0
0.200000 1.600000 0
0.300000 1.600000 0
0.400000 1.600000 0
0.500000 1.600000 0
0.600000 1.600000 0
0.700000 1.600000 0
0.800000 1.600000 0
0.900000 1.600000 0
1.000000 1.600000 0
1.100000 1.600000 0
1.200000 1.600000 0
1.300000 1.600000 0
1.400000 1.600000 0
1.500000 1.600000 0
1.600000 1.600000 0
1.700000 1.600000 0
1.800000 1.600000 0
1.900000 1.600000 0
2.000000 1.600000 0
0.000000 1.700000 0
0.100000 1.700000 0
0.200000 1.700000 0
0.300000 1.700000 0
0.400000 1.700000 0
0.500000 1.700000 0
0.600000 1.700000 0
0.700000 1.700000 0
0.800000 1.700000 0
0.900000 1.700000 0
1.000000 1.700000 0
1.100000 1.700000 0
1.200000 1.700000 0
1.300000 1.700000 0
1.400000 1.700000 0
1.500000 1.700000 0
1.600000 1.700000 0
1.700000 1.700000 0
1.800000 1.700000 0
1.900000 1.700000 0
2.000000 1.700000 0
0.000000 1.800000 0
0.100000 1.800000 0
0.200000 1.800000 0
0.300000 1.800000 0
0.400000 1.800000 0
0.500000 1.800000 0
0.600000 1.800000 0
0.700000 1.800000 0
0.800000 1.800000 0
0.900000 1.800000 0
1.000000 1.800000 0
1.100000 1.800000 0
1.200000 1.800000 0
1.300000 1.800000 0
1.400000 1.800000 0
1.500000 1.800000 0
1.600000 1.800000 0
1.700000 1.800000 0
1.800000 1.800000 0
1.900000 1.800000 0
2.000000 1.800000 0
0.000000 1.900000 0
0.100000 1.900000 0
0.200000 1.900000 0
0.300000 1.900000 0
0.400000 1.900000 0
0.500000 1.900000 0
0.600000 1.900000 0
0.700000 1.900000 0
0.800000 1.900000 0
0.900000 1.900000 0
1.000000 1.900000 0
1.100000 1.900000 0
1.200000 1.900000 0
1.300000 1.900000 0
1.400000 1.900000 0
1.500000 1.900000 0
1.600000 1.900000 0
1.700000 1.900000 0
1.800000 1.900000 0
1.900000 1.900000 0
2.000000 1.900000 0
0.000000 2.000000 0
0.100000 2.000000 0
0.200000 2.000000 0
0.300000 2.000000 0
0.400000 2.000000 0
0.500000 2.000000 0
0.600000 2.000000 0
0.700000 2.000000 0
0.800000 2.000000 0
0.900000 2.000000 0
1.000000 2.000000 0
1.100000 2.000000 0
1.200000 2.000000 0
1.300000 2.000000 0
1.400000 2.000000 0
1.500000 2.000000 0
1.600000 2.000000 0
1.700000 2.000000 0
1.800000 2.000000 0
1.900000 2.000000 0
2.000000 2.000000 0
POINT_DATA 441 

VECTORS velocity float
0.000000 0.000000 0
0.000007 0.000000 0
-0.000003 0.000000 0
-0.000008 0.000000 0
-0.000007 0.000000 0
-0.000002 0.000000 0
0.000003 0.000000 0
0.000006 0.000000 0
0.000005 0.000000 0
0.000002 0.000000 0
-0.000000 0.000000 0
-0.000002 0.000000 0
-0.000002 0.000000 0
-0.000001 0.000000 0
-0.000001 0.000000 0
0.000000 0.000000 0
0.000000 0.000000 0
0.000000 0.000000 0
0.000000 0.000000 0
-0.000000 0.000000 0
-0.000000 0.000000 0
0.000000 0.000002 0
0.000005 -0.000013 0
0.000009 -0.000015 0
0.000015 -0.000006 0
0.000020 0.000005 0
0.000022 0.000013 0
0.000019 0.000016 0
0.000011 0.000014 0
-0.000001 0.000010 0
-0.000015 0.000007 0
-0.000028 0.000006 0
-0.000040 0.000006 0
-0.000049 0.000006 0
-0.000056 0.000006 0
-0.000060 0.000005 0
-0.000063 0.000003 0
-0.000064 0.000001 0
-0.000064 0.000000 0
-0.000064 -0.000000 0
-0.000063 -0.000000 0
-0.000063 -0.000000 0
0.000000 -0.000008 0
0.000005 -0.000017 0
0.000016 -0.000009 0
0.000024 0.000000 0
0.000026 0.000006 0
0.000024 0.000008 0
0.000018 0.000009 0
0.000009 0.000012 0
-0.000002 0.000017 0
-0.000015 0.000021 0
-0.000029 0.000023 0
-0.000041 0.000022 0
-0.000052 0.000019 0
-0.000060 0.000014 0
-0.000065 0.000008 0
-0.000068 0.000004 0
-0.000068 0.000001 0
-0.000068 -0.000000 0
-0.000067 -0.000001 0
-0.000067 -0.000001 0
-0.000066 -0.000001 0
0.000000 -0.000001 0
0.000012 -0.000017 0
0.000021 -0.000014 0
0.000026 -0.000011 0
0.000028 -0.000007 0
0.000026 0.000001 0
0.000022 0.000013 0
0.000015 0.000026 0
0.000003 0.000037 0
-0.000012 0.000042 0
-0.000029 0.000042 0
-0.000044 0.000036 0
-0.000057 0.000027 0
-0.000065 0.000018 0
-0.000069 0.000010 0
-0.000070 0.000004 0
-0.000069 0.000001 0
-0.000068 -0.000001 0
-0.000067 -0.000002 0
-0.000066 -0.000001 0
-0.000066 -0.000001 0
0.000000 0.000005 0
0.000013 -0.000028 0
0.000022 -0.000029 0
0.000028 -0.000024 0
0.000033 -0.000012 0
0.000036 0.000006 0
0.000033 0.000026 0
0.000024 0.000044 0
0.000009 0.000056 0
-0.000011 0.000060 0
-0.000032 0.000057 0
-0.000050 0.000047 0
-0.000063 0.000035 0
-0.000070 0.000023 0
-0.000073 0.000012 0
-0.000072 0.000004 0
-0.000070 -0.000000 0
-0.000068 -0.000003 0
-0.000065 -0.000003 0
-0.000064 -0.000002 0
-0.000064 -0.000001 0
0.000000 0.000001 0
0.000011 -0.000043 0
0.000023 -0.000041 0
0.000035 -0.000029 0
0.000044 -0.000011 0
0.000048 0.000011 0
0.000045 0.000034 0
0.000033 0.000056 0
0.000014 0.000072 0
-0.000011 0.000079 0
-0.000036 0.000076 0
-0.000056 0.000063 0
-0.000069 0.000045 0
-0.000075 0.000028 0
-0.000076 0.000013 0
-0.000074 0.000003 0
-0.000070 -0.000003 0
-0.000066 -0.000006 0
-0.000063 -0.000005 0
-0.000061 -0.000003 0
-0.000061 -0.000001 0
0.000000 -0.000002 0
0.000011 -0.000055 0
0.000027 -0.000050 0
0.000041 -0.000037 0
0.000052 -0.000018 0
0.000057 0.000007 0
0.000055 0.000038 0
0.000042 0.000069 0
0.000020 0.000095 0
-0.000009 0.000107 0
-0.000039 0.000101 0
-0.000062 0.000082 0
-0.000076 0.000056 0
-0.000080 0.000031 0
-0.000079 0.000011 0
-0.000074 -0.000002 0
-0.000068 -0.000008 0
-0.000063 -0.000010 0
-0.000059 -0.000008 0
-0.000056 -0.000004 0
-0.000056 -0.000002 0
0.000000 -0.000000 0
0.000013 -0.000067 0
0.000029 -0.000063 0
0.000043 -0.000051 0
0.000055 -0.000030 0
0.000063 0.000002 0
0.000063 0.000043 0
0.000051 0.000088 0
0.000027 0.000125 0
-0.000007 0.000141 0
-0.000041 0.000131 0
-0.000066 0.000102 0
-0.000080 0.000065 0
-0.000082 0.000031 0
-0.000078 0.000006 0
-0.000070 -0.000009 0
-0.000063 -0.000015 0
-0.000056 -0.000015 0
-0.000051 -0.000011 0
-0.000049 -0.000005 0
-0.000049 -0.000002 0
0.000000 0.000001 0
0.000012 -0.000081 0
0.000026 -0.000080 0
0.000040 -0.000067 0
0.000053 -0.000042 0
0.000063 -0.000003 0
0.000065 0.000050 0
0.000055 0.000108 0
0.000031 0.000156 0
-0.000005 0.000177 0
-0.000040 0.000162 0
-0.000065 0.000120 0
-0.000076 0.000071 0
-0.000076 0.000028 0
-0.000070 -0.000001 0
-0.000061 -0.000017 0
-0.000052 -0.000022 0
-0.000046 -0.000021 0
-0.000041 -0.000015 0
-0.000039 -0.000007 0
-0.000039 -0.000002 0
0.000000 0.000000 0
0.000009 -0.000094 0
0.000020 -0.000093 0
0.000032 -0.000079 0
0.000044 -0.000052 0
0.000053 -0.000009 0
0.000056 0.000053 0
0.000049 0.000124 0
0.000028 0.000185 0
-0.000003 0.000211 0
-0.000033 0.000191 0
-0.000054 0.000137 0
-0.000061 0.000075 0
-0.000059 0.000024 0
-0.000053 -0.000009 0
-0.000044 -0.000025 0
-0.000037 -0.000030 0
-0.000032 -0.000026 0
-0.000028 -0.000018 0
-0.000026 -0.000008 0
-0.000026 -0.000002 0
0.000000 -0.000001 0
0.000004 -0.000102 0
0.000011 -0.000102 0
0.000018 -0.000088 0
0.000025 -0.000061 0
0.000030 -0.000015 0
0.000033 0.000053 0
0.000029 0.000135 0
0.000017 0.000206 0
-0.000000 0.000237 0
-0.000018 0.000213 0
-0.000029 0.000149 0
-0.000033 0.000077 0
-0.000031 0.000019 0
-0.000026 -0.000016 0
-0.000022 -0.000032 0
-0.000017 -0.000035 0
-0.000014 -0.000030 0
-0.000012 -0.000021 0
-0.000010 -0.000009 0
-0.000010 -0.000002 0
0.000000 -0.000000 0
-0.000000 -0.000105 0
0.000000 -0.000105 0
0.000000 -0.000092 0
0.000000 -0.000065 0
0.000000 -0.000018 0
0.000000 0.000053 0
0.000000 0.000138 0
0.000001 0.000214 0
0.000002 0.000246 0
0.000004 0.000220 0
0.000005 0.000153 0
0.000005 0.000077 0
0.000005 0.000017 0
0.000005 -0.000019 0
0.000006 -0.000035 0
0.000006 -0.000037 0
0.000006 -0.000032 0
0.000006 -0.000022 0
0.000006 -0.000009 0
0.000006 -0.000002 0
0.000000 0.000000 0
-0.000005 -0.000102 0
-0.000011 -0.000102 0
-0.000018 -0.000088 0
-0.000024 -0.000062 0
-0.000030 -0.000016 0
-0.000032 0.000052 0
-0.000028 0.000134 0
-0.000015 0.000205 0
0.000005 0.000235 0
0.000024 0.000211 0
0.000038 0.000148 0
0.000042 0.000076 0
0.000041 0.000019 0
0.000037 -0.000016 0
0.000033 -0.000033 0
0.000029 -0.000036 0
0.000026 -0.000031 0
0.000024 -0.000021 0
0.000023 -0.000009 0
0.000023 -0.000002 0
0.000000 -0.000000 0
-0.000010 -0.000094 0
-0.000021 -0.000093 0
-0.000032 -0.000079 0
-0.000043 -0.000053 0
-0.000052 -0.000010 0
-0.000054 0.000051 0
-0.000046 0.000121 0
-0.000025 0.000181 0
0.000007 0.000207 0
0.000039 0.000188 0
0.000061 0.000135 0
0.000070 0.000073 0
0.000069 0.000023 0
0.000063 -0.000010 0
0.000056 -0.000026 0
0.000049 -0.000031 0
0.000044 -0.000027 0
0.000040 -0.000019 0
0.000039 -0.000008 0
0.000038 -0.000002 0
0.000000 -0.000000 0
-0.000013 -0.000082 0
-0.000027 -0.000080 0
-0.000040 -0.000066 0
-0.000053 -0.000041 0
-0.000062 -0.000003 0
-0.000064 0.000047 0
-0.000053 0.000104 0
-0.000027 0.000151 0
0.000009 0.000171 0
0.000046 0.000157 0
0.000072 0.000117 0
0.000085 0.000068 0
0.000086 0.000026 0
0.000080 -0.000003 0
0.000072 -0.000019 0
0.000065 -0.000024 0
0.000059 -0.000022 0
0.000054 -0.000016 0
0.000052 -0.000007 0
0.000052 -0.000002 0
0.000000 -0.000000 0
-0.000014 -0.000067 0
-0.000029 -0.000065 0
-0.000043 -0.000052 0
-0.000056 -0.000030 0
-0.000063 0.000001 0
-0.000063 0.000041 0
-0.000050 0.000084 0
-0.000024 0.000119 0
0.000011 0.000134 0
0.000046 0.000125 0
0.000073 0.000096 0
0.000088 0.000060 0
0.000092 0.000027 0
0.000089 0.000003 0
0.000083 -0.000011 0
0.000076 -0.000017 0
0.000070 -0.000017 0
0.000065 -0.000012 0
0.000063 -0.000006 0
0.000063 -0.000002 0
0.000000 -0.000000 0
-0.000014 -0.000053 0
-0.000029 -0.000050 0
-0.000043 -0.000039 0
-0.000053 -0.000021 0
-0.000059 0.000004 0
-0.000056 0.000034 0
-0.000043 0.000065 0
-0.000019 0.000089 0
0.000012 0.000100 0
0.000044 0.000094 0
0.000070 0.000075 0
0.000085 0.000050 0
0.000092 0.000025 0
0.000092 0.000006 0
0.000088 -0.000005 0
0.000082 -0.000011 0
0.000078 -0.000012 0
0.000074 -0.000009 0
0.000072 -0.000004 0
0.000071 -0.000001 0
0.000000 -0.000000 0
-0.000013 -0.000039 0
-0.000028 -0.000036 0
-0.000040 -0.000027 0
-0.000049 -0.000014 0
-0.000053 0.000004 0
-0.000049 0.000026 0
-0.000036 0.000047 0
-0.000014 0.000063 0
0.000013 0.000071 0
0.000041 0.000067 0
0.000065 0.000055 0
0.000081 0.000038 0
0.000089 0.000021 0
0.000091 0.000007 0
0.000090 -0.000002 0
0.000087 -0.000007 0
0.000083 -0.000008 0
0.000080 -0.000006 0
0.000078 -0.000003 0
0.000077 -0.000001 0
0.000000 -0.000000 0
-0.000013 -0.000025 0
-0.000027 -0.000023 0
-0.000038 -0.000017 0
-0.000046 -0.000008 0
-0.000048 0.000004 0
-0.000043 0.000017 0
-0.000030 0.000030 0
-0.000010 0.000040 0
0.000014 0.000045 0
0.000039 0.000043 0
0.000061 0.000036 0
0.000077 0.000025 0
0.000087 0.000015 0
0.000091 0.000006 0
0.000091 -0.000000 0
0.000089 -0.000004 0
0.000086 -0.000005 0
0.000083 -0.000004 0
0.000082 -0.000002 0
0.000081 -0.000001 0
0.000000 -0.000000 0
-0.000012 -0.000012 0
-0.000025 -0.000011 0
-0.000036 -0.000008 0
-0.000043 -0.000004 0
-0.000044 0.000002 0
-0.000039 0.000008 0
-0.000027 0.000014 0
-0.000009 0.000019 0
0.000013 0.000021 0
0.000036 0.000020 0
0.000056 0.000017 0
0.000072 0.000012 0
0.000082 0.000007 0
0.000086 0.000003 0
0.000087 -0.000000 0
0.000086 -0.000002 0
0.000083 -0.000002 0
0.000081 -0.000002 0
0.000079 -0.000001 0
0.000079 -0.000000 0
0.000000 0.000000 0
0.000000 0.000000 0
-0.000000 0.000000 0
-0.000000 0.000000 0
-0.000000 0.000000 0
-0.000000 0.000000 0
-0.000000 0.000000 0
-0.000000 0.000000 0
0.000000 0.000000 0
0.000000 0.000000 0
0.000000 0.000000 0
0.000000 0.000000 0
0.000000 0.000000 0
0.000000 0.000000 0
0.000000 0.000000 0
0.000000 0.000000 0
0.000000 0.000000 0
0.000000 0.000000 0
0.000000 0.000000 0
0.000000 0.000000 0
0.000000 0.000000 0

CELL_DATA 400 
SCALARS pressure float 1 
LOOKUP_TABLE default 
0.242609
0.242579
0.242590
0.242623
0.242651
0.242659
0.242646
0.242624
0.242605
0.242596
0.242598
0.242606
0.242614
0.242620
0.242622
0.242622
0.242621
0.242621
0.242621
0.242622
0.219599
0.219622
0.219638
0.219638
0.219626
0.219609
0.219599
0.219598
0.219605
0.219613
0.219620
0.219623
0.219622
0.219621
0.219619
0.219618
0.219619
0.219619
0.219620
0.219621
0.196632
0.196640
0.196624
0.196601
0.196589
0.196591
0.196605
0.196620
0.196629
0.196630
0.196626
0.196620
0.196616
0.196614
0.196615
0.196617
0.196618
0.196620
0.196621
0.196621
0.173637
0.173620
0.173601
0.173594
0.173601
0.173615
0.173628
0.173632
0.173629
0.173622
0.173616
0.173612
0.173612
0.173614
0.173617
0.173619
0.173620
0.173621
0.173621
0.173622
0.150617
0.150611
0.150611
0.150617
0.150622
0.150624
0.150623
0.150618
0.150615
0.150613
0.150613
0.150615
0.150616
0.150618
0.150619
0.150620
0.150620
0.150621
0.150621
0.150622
0.127613
0.127623
0.127627
0.127625
0.127618
0.127611
0.127608
0.127610
0.127613
0.127617
0.127619
0.127620
0.127619
0.127619
0.127619
0.127619
0.127620
0.127620
0.127621
0.127621
0.104622
0.104628
0.104624
0.104616
0.104609
0.104607
0.104610
0.104615
0.104619
0.104621
0.104621
0.104619
0.104618
0.104618
0.104618
0.104619
0.104620
0.104620
0.104621
0.104622
0.081624
0.081622
0.081618
0.081614
0.081613
0.081615
0.081618
0.081620
0.081620
0.081619
0.081618
0.081618
0.081618
0.081618
0.081619
0.081620
0.081620
0.081621
0.081621
0.081622
0.058619
0.058619
0.058621
0.058622
0.058621
0.058620
0.058618
0.058617
0.058617
0.058617
0.058618
0.058619
0.058619
0.058620
0.058620
0.058621
0.058621
0.058621
0.058622
0.058622
0.035618
0.035623
0.035626
0.035625
0.035622
0.035619
0.035617
0.035616
0.035618
0.035619
0.035621
0.035621
0.035622
0.035621
0.035621
0.035621
0.035621
0.035622
0.035622
0.035622
0.012622
0.012625
0.012625
0.012624
0.012621
0.012619
0.012619
0.012620
0.012621
0.012622
0.012623
0.012623
0.012623
0.012622
0.012622
0.012622
0.012622
0.012622
0.012622
0.012622
-0.010376
-0.010376
-0.010376
-0.010376
-0.010376
-0.010377
-0.010377
-0.010376
-0.010376
-0.010376
-0.010376
-0.010376
-0.010376
-0.010376
-0.010377
-0.010377
-0.010377
-0.010377
-0.010377
-0.010377
-0.033377
-0.033377
-0.033375
-0.033373
-0.033373
-0.033373
-0.033374
-0.033375
-0.033375
-0.033375
-0.033374
-0.033374
-0.033375
-0.033375
-0.033375
-0.033376
-0.033376
-0.033377
-0.033377
-0.033377
-0.056376
-0.056375
-0.056373
-0.056372
-0.056372
-0.056372
-0.056373
-0.056373
-0.056373
-0.056373
-0.056373
-0.056373
-0.056373
-0.056374
-0.056374
-0.056375
-0.056376
-0.056376
-0.056377
-0.056377
-0.079374
-0.079374
-0.079373
-0.079372
-0.079372
-0.079372
-0.079372
-0.079372
-0.079372
-0.079371
-0.079371
-0.079372
-0.079372
-0.079373
-0.079374
-0.079375
-0.079375
-0.079376
-0.079376
-0.079377
-0.102373
-0.102373
-0.102373
-0.102372
-0.102371
-0.102371
-0.102370
-0.102370
-0.102370
-0.102371
-0.102371
-0.102371
-0.102372
-0.102372
-0.102373
-0.102374
-0.102375
-0.102375
-0.102376
-0.102377
-0.125373
-0.125373
-0.125372
-0.125371
-0.125370
-0.125370
-0.125370
-0.125370
-0.125370
-0.125370
-0.125370
-0.125371
-0.125371
-0.125372
-0.125373
-0.125373
-0.125374
-0.125375
-0.125376
-0.125376
-0.148372
-0.148372
-0.148372
-0.148371
-0.148370
-0.148369
-0.148369
-0.148369
-0.148370
-0.148370
-0.148370
-0.148370
-0.148371
-0.148372
-0.148372
-0.148373
-0.148374
-0.148375
-0.148376
-0.148376
-0.171372
-0.171372
-0.171371
-0.171371
-0.171370
-0.171369
-0.171369
-0.171369
-0.171369
-0.171369
-0.171370
-0.171370
-0.171371
-0.171371
-0.171372
-0.171373
-0.171374
-0.171375
-0.171375
-0.171376
-0.194371
-0.194372
-0.194371
-0.194371
-0.194370
-0.194369
-0.194369
-0.194368
-0.194368
-0.194369
-0.194369
-0.194370
-0.194370
-0.194371
-0.194372
-0.194373
-0.194374
-0.194374
-0.194375
-0.194376

SCALARS temperature float 1 
LOOKUP_TABLE default 
0.000008
0.000068
0.000186
0.000356
0.000565
0.000793
0.001013
0.001196
0.001315
0.001355
0.001314
0.001205
0.001051
0.000877
0.000706
0.000555
0.000433
0.000343
0.000285
0.000256
0.000009
0.000078
0.000215
0.000412
0.000655
0.000922
0.001181
0.001396
0.001535
0.001580
0.001528
0.001396
0.001211
0.001004
0.000804
0.000628
0.000488
0.000385
0.000319
0.000286
0.000012
0.000101
0.000277
0.000533
0.000852
0.001206
0.001551
0.001839
0.002023
0.002077
0.001998
0.001810
0.001555
0.001276
0.001010
0.000781
0.000600
0.000469
0.000386
0.000346
0.000016
0.000138
0.000381
0.000739
0.001193
0.001702
0.002206
0.002627
0.002894
0.002961
0.002827
0.002532
0.002145
0.001733
0.001350
0.001028
0.000779
0.000602
0.000491
0.000437
0.000023
0.000195
0.000541
0.001059
0.001728
0.002494
0.003266
0.003918
0.004326
0.004410
0.004171
0.003684
0.003066
0.002430
0.001856
0.001388
0.001034
0.000788
0.000636
0.000564
0.000032
0.000274
0.000767
0.001519
0.002512
0.003679
0.004882
0.005916
0.006560
0.006664
0.006233
0.005411
0.004409
0.003417
0.002553
0.001870
0.001368
0.001028
0.000820
0.000723
0.000044
0.000376
0.001062
0.002129
0.003578
0.005334
0.007202
0.008844
0.009866
0.009990
0.009224
0.007848
0.006243
0.004718
0.003442
0.002467
0.001772
0.001311
0.001035
0.000907
0.000058
0.000495
0.001409
0.002864
0.004900
0.007454
0.010270
0.012822
0.014422
0.014560
0.013253
0.011025
0.008541
0.006284
0.004474
0.003138
0.002215
0.001616
0.001263
0.001101
0.000073
0.000615
0.001768
0.003641
0.006339
0.009847
0.013864
0.017627
0.020020
0.020162
0.018087
0.014703
0.011091
0.007952
0.005532
0.003807
0.002646
0.001908
0.001480
0.001284
0.000084
0.000717
0.002073
0.004314
0.007619
0.012049
0.017292
0.022353
0.025621
0.025761
0.022822
0.018185
0.013412
0.009414
0.006433
0.004363
0.002999
0.002145
0.001654
0.001431
0.000091
0.000776
0.002252
0.004714
0.008389
0.013400
0.019445
0.025386
0.029261
0.029401
0.025865
0.020377
0.014841
0.010298
0.006972
0.004696
0.003211
0.002289
0.001761
0.001522
0.000092
0.000779
0.002260
0.004725
0.008399
0.013398
0.019418
0.025330
0.029190
0.029338
0.025834
0.020382
0.014873
0.010341
0.007016
0.004735
0.003244
0.002316
0.001784
0.001543
0.000086
0.000727
0.002099
0.004355
0.007664
0.012075
0.017270
0.022276
0.025519
0.025682
0.022811
0.018251
0.013533
0.009555
0.006568
0.004482
0.003097
0.002226
0.001723
0.001494
0.000075
0.000635
0.001819
0.003729
0.006456
0.009972
0.013970
0.017705
0.020092
0.020266
0.018252
0.014932
0.011356
0.008218
0.005773
0.004010
0.002812
0.002044
0.001595
0.001388
0.000062
0.000526
0.001492
0.003015
0.005122
0.007737
0.010596
0.013175
0.014804
0.014976
0.013704
0.011495
0.009001
0.006703
0.004833
0.003433
0.002452
0.001808
0.001424
0.001247
0.000050
0.000421
0.001182
0.002353
0.003924
0.005804
0.007782
0.009514
0.010600
0.010761
0.009998
0.008590
0.006919
0.005303
0.003927
0.002856
0.002080
0.001558
0.001241
0.001093
0.000039
0.000332
0.000926
0.001819
0.002985
0.004336
0.005715
0.006895
0.007636
0.007779
0.007325
0.006425
0.005304
0.004172
0.003166
0.002354
0.001748
0.001329
0.001071
0.000949
0.000031
0.000267
0.000738
0.001435
0.002325
0.003333
0.004337
0.005183
0.005719
0.005846
0.005563
0.004959
0.004176
0.003353
0.002597
0.001968
0.001485
0.001145
0.000932
0.000830
0.000026
0.000225
0.000618
0.001194
0.001917
0.002724
0.003516
0.004178
0.004600
0.004715
0.004520
0.004075
0.003479
0.002835
0.002228
0.001711
0.001307
0.001018
0.000835
0.000746
0.000024
0.000204
0.000560
0.001078
0.001725
0.002439
0.003137
0.003717
0.004090
0.004199
0.004040
0.003663
0.003149
0.002586
0.002048
0.001584
0.001218
0.000954
0.000785
0.000704


SCALARS Species_1 float 1 
LOOKUP_TABLE default 
0.000582
0.001749
0.002926
0.004113
0.005305
0.006486
0.007635
0.008723
0.009721
0.010600
0.011333
0.011907
0.012317
0.012572
0.012693
0.012710
0.012661
0.012582
0.012509
0.012466
0.000588
0.001768
0.002957
0.004156
0.005359
0.006551
0.007710
0.008808
0.009815
0.010700
0.011440
0.012019
0.012433
0.012691
0.012815
0.012834
0.012785
0.012708
0.012635
0.012592
0.000599
0.001801
0.003012
0.004233
0.005457
0.006669
0.007847
0.008963
0.009986
0.010885
0.011637
0.012226
0.012647
0.012910
0.013036
0.013057
0.013009
0.012932
0.012859
0.012815
0.000613
0.001843
0.003082
0.004331
0.005582
0.006820
0.008023
0.009162
0.010206
0.011124
0.011891
0.012492
0.012922
0.013191
0.013321
0.013343
0.013295
0.013217
0.013143
0.013099
0.000628
0.001887
0.003156
0.004433
0.005712
0.006978
0.008208
0.009372
0.010437
0.011375
0.012158
0.012772
0.013211
0.013486
0.013619
0.013642
0.013595
0.013516
0.013441
0.013397
0.000641
0.001926
0.003220
0.004522
0.005826
0.007116
0.008368
0.009553
0.010638
0.011592
0.012389
0.013013
0.013461
0.013741
0.013877
0.013901
0.013854
0.013774
0.013699
0.013654
0.000649
0.001952
0.003262
0.004581
0.005900
0.007205
0.008471
0.009669
0.010766
0.011731
0.012537
0.013168
0.013620
0.013904
0.014042
0.014067
0.014020
0.013940
0.013865
0.013820
0.000651
0.001957
0.003271
0.004593
0.005915
0.007222
0.008490
0.009690
0.010788
0.011753
0.012560
0.013191
0.013644
0.013929
0.014068
0.014094
0.014048
0.013969
0.013894
0.013850
0.000645
0.001938
0.003239
0.004548
0.005856
0.007150
0.008404
0.009591
0.010677
0.011632
0.012429
0.013054
0.013502
0.013784
0.013923
0.013950
0.013905
0.013828
0.013755
0.013711
0.000630
0.001893
0.003163
0.004440
0.005718
0.006980
0.008204
0.009362
0.010421
0.011352
0.012131
0.012740
0.013178
0.013454
0.013590
0.013618
0.013576
0.013502
0.013431
0.013389
0.000606
0.001821
0.003043
0.004271
0.005500
0.006714
0.007891
0.009004
0.010022
0.010918
0.011666
0.012253
0.012674
0.012941
0.013073
0.013101
0.013061
0.012991
0.012924
0.012884
0.000574
0.001725
0.002883
0.004047
0.005211
0.006361
0.007477
0.008531
0.009496
0.010344
0.011054
0.011610
0.012011
0.012264
0.012391
0.012419
0.012383
0.012318
0.012255
0.012218
0.000536
0.001611
0.002693
0.003780
0.004868
0.005942
0.006984
0.007969
0.008870
0.009663
0.010327
0.010847
0.011223
0.011461
0.011581
0.011609
0.011577
0.011517
0.011460
0.011425
0.000495
0.001486
0.002483
0.003487
0.004490
0.005481
0.006442
0.007351
0.008183
0.008915
0.009528
0.010010
0.010358
0.010579
0.010692
0.010719
0.010691
0.010638
0.010585
0.010554
0.000452
0.001357
0.002268
0.003185
0.004101
0.005007
0.005886
0.006717
0.007478
0.008148
0.008710
0.009151
0.009471
0.009676
0.009780
0.009807
0.009783
0.009735
0.009688
0.009659
0.000410
0.001233
0.002062
0.002895
0.003729
0.004552
0.005352
0.006108
0.006802
0.007412
0.007924
0.008328
0.008620
0.008808
0.008905
0.008931
0.008911
0.008868
0.008826
0.008801
0.000374
0.001123
0.001877
0.002636
0.003396
0.004147
0.004876
0.005565
0.006198
0.006756
0.007224
0.007593
0.007862
0.008035
0.008125
0.008150
0.008133
0.008095
0.008057
0.008035
0.000344
0.001033
0.001727
0.002426
0.003125
0.003817
0.004488
0.005124
0.005708
0.006222
0.006655
0.006996
0.007245
0.007406
0.007491
0.007515
0.007500
0.007466
0.007432
0.007411
0.000322
0.000969
0.001621
0.002278
0.002935
0.003584
0.004216
0.004813
0.005362
0.005846
0.006254
0.006576
0.006811
0.006963
0.007044
0.007068
0.007055
0.007023
0.006991
0.006972
0.000312
0.000937
0.001567
0.002201
0.002836
0.003464
0.004075
0.004653
0.005184
0.005652
0.006047
0.006359
0.006587
0.006735
0.006813
0.006837
0.006825
0.006795
0.006764
0.006745


SCALARS Species_2 float 1 
LOOKUP_TABLE default 
0.000305
0.000899
0.001449
0.001931
0.002323
0.002613
0.002795
0.002870
0.002848
0.002741
0.002567
0.002345
0.002096
0.001837
0.001585
0.001356
0.001160
0.001005
0.000899
0.000845
0.000322
0.000951
0.001533
0.002041
0.002456
0.002762
0.002954
0.003034
0.003011
0.002899
0.002715
0.002481
0.002217
0.001944
0.001679
0.001436
0.001229
0.001066
0.000954
0.000897
0.000356
0.001051
0.001694
0.002256
0.002714
0.003052
0.003264
0.003353
0.003327
0.003202
0.003000
0.002741
0.002450
0.002149
0.001856
0.001588
0.001360
0.001180
0.001056
0.000994
0.000406