# vtk DataFile Version 2.0
generated by CFD-lab course output (written by Tobias Neckel) 
ASCII

DATASET STRUCTURED_GRID
DIMENSIONS  21 21 1 
POINTS 441 float

0.000000 0.000000 0
0.100000 0.000000 0
0.200000 0.000000 0
0.300000 0.000000 0
0.400000 0.000000 0
0.500000 0.000000 0
0.600000 0.000000 0
0.700000 0.000000 0
0.800000 0.000000 0
0.900000 0.000000 0
1.000000 0.000000 0
1.100000 0.000000 0
1.200000 0.000000 0
1.300000 0.000000 0
1.400000 0.000000 0
1.500000 0.000000 0
1.600000 0.000000 0
1.700000 0.000000 0
1.800000 0.000000 0
1.900000 0.000000 0
2.000000 0.000000 0
0.000000 0.100000 0
0.100000 0.100000 0
0.200000 0.100000 0
0.300000 0.100000 0
0.400000 0.100000 0
0.500000 0.100000 0
0.600000 0.100000 0
0.700000 0.100000 0
0.800000 0.100000 0
0.900000 0.100000 0
1.000000 0.100000 0
1.100000 0.100000 0
1.200000 0.100000 0
1.300000 0.100000 0
1.400000 0.100000 0
1.500000 0.100000 0
1.600000 0.100000 0
1.700000 0.100000 0
1.800000 0.100000 0
1.900000 0.100000 0
2.000000 0.100000 0
0.000000 0.200000 0
0.100000 0.200000 0
0.200000 0.200000 0
0.300000 0.200000 0
0.400000 0.200000 0
0.500000 0.200000 0
0.600000 0.200000 0
0.700000 0.200000 0
0.800000 0.200000 0
0.900000 0.200000 0
1.000000 0.200000 0
1.100000 0.200000 0
1.200000 0.200000 0
1.300000 0.200000 0
1.400000 0.200000 0
1.500000 0.200000 0
1.600000 0.200000 0
1.700000 0.200000 0
1.800000 0.200000 0
1.900000 0.200000 0
2.000000 0.200000 0
0.000000 0.300000 0
0.100000 0.300000 0
0.200000 0.300000 0
0.300000 0.300000 0
0.400000 0.300000 0
0.500000 0.300000 0
0.600000 0.300000 0
0.700000 0.300000 0
0.800000 0.300000 0
0.900000 0.300000 0
1.000000 0.300000 0
1.100000 0.300000 0
1.200000 0.300000 0
1.300000 0.300000 0
1.400000 0.300000 0
1.500000 0.300000 0
1.600000 0.300000 0
1.700000 0.300000 0
1.800000 0.300000 0
1.900000 0.300000 0
2.000000 0.300000 0
0.000000 0.400000 0
0.100000 0.400000 0
0.200000 0.400000 0
0.300000 0.400000 0
0.400000 0.400000 0
0.500000 0.400000 0
0.600000 0.400000 0
0.700000 0.400000 0
0.800000 0.400000 0
0.900000 0.400000 0
1.000000 0.400000 0
1.100000 0.400000 0
1.200000 0.400000 0
1.300000 0.400000 0
1.400000 0.400000 0
1.500000 0.400000 0
1.600000 0.400000 0
1.700000 0.400000 0
1.800000 0.400000 0
1.900000 0.400000 0
2.000000 0.400000 0
0.000000 0.500000 0
0.100000 0.500000 0
0.200000 0.500000 0
0.300000 0.500000 0
0.400000 0.500000 0
0.500000 0.500000 0
0.600000 0.500000 0
0.700000 0.500000 0
0.800000 0.500000 0
0.900000 0.500000 0
1.000000 0.500000 0
1.100000 0.500000 0
1.200000 0.500000 0
1.300000 0.500000 0
1.400000 0.500000 0
1.500000 0.500000 0
1.600000 0.500000 0
1.700000 0.500000 0
1.800000 0.500000 0
1.900000 0.500000 0
2.000000 0.500000 0
0.000000 0.600000 0
0.100000 0.600000 0
0.200000 0.600000 0
0.300000 0.600000 0
0.400000 0.600000 0
0.500000 0.600000 0
0.600000 0.600000 0
0.700000 0.600000 0
0.800000 0.600000 0
0.900000 0.600000 0
1.000000 0.600000 0
1.100000 0.600000 0
1.200000 0.600000 0
1.300000 0.600000 0
1.400000 0.600000 0
1.500000 0.600000 0
1.600000 0.600000 0
1.700000 0.600000 0
1.800000 0.600000 0
1.900000 0.600000 0
2.000000 0.600000 0
0.000000 0.700000 0
0.100000 0.700000 0
0.200000 0.700000 0
0.300000 0.700000 0
0.400000 0.700000 0
0.500000 0.700000 0
0.600000 0.700000 0
0.700000 0.700000 0
0.800000 0.700000 0
0.900000 0.700000 0
1.000000 0.700000 0
1.100000 0.700000 0
1.200000 0.700000 0
1.300000 0.700000 0
1.400000 0.700000 0
1.500000 0.700000 0
1.600000 0.700000 0
1.700000 0.700000 0
1.800000 0.700000 0
1.900000 0.700000 0
2.000000 0.700000 0
0.000000 0.800000 0
0.100000 0.800000 0
0.200000 0.800000 0
0.300000 0.800000 0
0.400000 0.800000 0
0.500000 0.800000 0
0.600000 0.800000 0
0.700000 0.800000 0
0.800000 0.800000 0
0.900000 0.800000 0
1.000000 0.800000 0
1.100000 0.800000 0
1.200000 0.800000 0
1.300000 0.800000 0
1.400000 0.800000 0
1.500000 0.800000 0
1.600000 0.800000 0
1.700000 0.800000 0
1.800000 0.800000 0
1.900000 0.800000 0
2.000000 0.800000 0
0.000000 0.900000 0
0.100000 0.900000 0
0.200000 0.900000 0
0.300000 0.900000 0
0.400000 0.900000 0
0.500000 0.900000 0
0.600000 0.900000 0
0.700000 0.900000 0
0.800000 0.900000 0
0.900000 0.900000 0
1.000000 0.900000 0
1.100000 0.900000 0
1.200000 0.900000 0
1.300000 0.900000 0
1.400000 0.900000 0
1.500000 0.900000 0
1.600000 0.900000 0
1.700000 0.900000 0
1.800000 0.900000 0
1.900000 0.900000 0
2.000000 0.900000 0
0.000000 1.000000 0
0.100000 1.000000 0
0.200000 1.000000 0
0.300000 1.000000 0
0.400000 1.000000 0
0.500000 1.000000 0
0.600000 1.000000 0
0.700000 1.000000 0
0.800000 1.000000 0
0.900000 1.000000 0
1.000000 1.000000 0
1.100000 1.000000 0
1.200000 1.000000 0
1.300000 1.000000 0
1.400000 1.000000 0
1.500000 1.000000 0
1.600000 1.000000 0
1.700000 1.000000 0
1.800000 1.000000 0
1.900000 1.000000 0
2.000000 1.000000 0
0.000000 1.100000 0
0.100000 1.100000 0
0.200000 1.100000 0
0.300000 1.100000 0
0.400000 1.100000 0
0.500000 1.100000 0
0.600000 1.100000 0
0.700000 1.100000 0
0.800000 1.100000 0
0.900000 1.100000 0
1.000000 1.100000 0
1.100000 1.100000 0
1.200000 1.100000 0
1.300000 1.100000 0
1.400000 1.100000 0
1.500000 1.100000 0
1.600000 1.100000 0
1.700000 1.100000 0
1.800000 1.100000 0
1.900000 1.100000 0
2.000000 1.100000 0
0.000000 1.200000 0
0.100000 1.200000 0
0.200000 1.200000 0
0.300000 1.200000 0
0.400000 1.200000 0
0.500000 1.200000 0
0.600000 1.200000 0
0.700000 1.200000 0
0.800000 1.200000 0
0.900000 1.200000 0
1.000000 1.200000 0
1.100000 1.200000 0
1.200000 1.200000 0
1.300000 1.200000 0
1.400000 1.200000 0
1.500000 1.200000 0
1.600000 1.200000 0
1.700000 1.200000 0
1.800000 1.200000 0
1.900000 1.200000 0
2.000000 1.200000 0
0.000000 1.300000 0
0.100000 1.300000 0
0.200000 1.300000 0
0.300000 1.300000 0
0.400000 1.300000 0
0.500000 1.300000 0
0.600000 1.300000 0
0.700000 1.300000 0
0.800000 1.300000 0
0.900000 1.300000 0
1.000000 1.300000 0
1.100000 1.300000 0
1.200000 1.300000 0
1.300000 1.300000 0
1.400000 1.300000 0
1.500000 1.300000 0
1.600000 1.300000 0
1.700000 1.300000 0
1.800000 1.300000 0
1.900000 1.300000 0
2.000000 1.300000 0
0.000000 1.400000 0
0.100000 1.400000 0
0.200000 1.400000 0
0.300000 1.400000 0
0.400000 1.400000 0
0.500000 1.400000 0
0.600000 1.400000 0
0.700000 1.400000 0
0.800000 1.400000 0
0.900000 1.400000 0
1.000000 1.400000 0
1.100000 1.400000 0
1.200000 1.400000 0
1.300000 1.400000 0
1.400000 1.400000 0
1.500000 1.400000 0
1.600000 1.400000 0
1.700000 1.400000 0
1.800000 1.400000 0
1.900000 1.400000 0
2.000000 1.400000 0
0.000000 1.500000 0
0.100000 1.500000 0
0.200000 1.500000 0
0.300000 1.500000 0
0.400000 1.500000 0
0.500000 1.500000 0
0.600000 1.500000 0
0.700000 1.500000 0
0.800000 1.500000 0
0.900000 1.500000 0
1.000000 1.500000 0
1.100000 1.500000 0
1.200000 1.500000 0
1.300000 1.500000 0
1.400000 1.500000 0
1.500000 1.500000 0
1.600000 1.500000 0
1.700000 1.500000 0
1.800000 1.500000 0
1.900000 1.500000 0
2.000000 1.500000 0
0.000000 1.600000 0
0.100000 1.600000 0
0.200000 1.600000 0
0.300000 1.600000 0
0.400000 1.600000 0
0.500000 1.600000 0
0.600000 1.600000 0
0.700000 1.600000 0
0.800000 1.600000 0
0.900000 1.600000 0
1.000000 1.600000 0
1.100000 1.600000 0
1.200000 1.600000 0
1.300000 1.600000 0
1.400000 1.600000 0
1.500000 1.600000 0
1.600000 1.600000 0
1.700000 1.600000 0
1.800000 1.600000 0
1.900000 1.600000 0
2.000000 1.600000 0
0.000000 1.700000 0
0.100000 1.700000 0
0.200000 1.700000 0
0.300000 1.700000 0
0.400000 1.700000 0
0.500000 1.700000 0
0.600000 1.700000 0
0.700000 1.700000 0
0.800000 1.700000 0
0.900000 1.700000 0
1.000000 1.700000 0
1.100000 1.700000 0
1.200000 1.700000 0
1.300000 1.700000 0
1.400000 1.700000 0
1.500000 1.700000 0
1.600000 1.700000 0
1.700000 1.700000 0
1.800000 1.700000 0
1.900000 1.700000 0
2.000000 1.700000 0
0.000000 1.800000 0
0.100000 1.800000 0
0.200000 1.800000 0
0.300000 1.800000 0
0.400000 1.800000 0
0.500000 1.800000 0
0.600000 1.800000 0
0.700000 1.800000 0
0.800000 1.800000 0
0.900000 1.800000 0
1.000000 1.800000 0
1.100000 1.800000 0
1.200000 1.800000 0
1.300000 1.800000 0
1.400000 1.800000 0
1.500000 1.800000 0
1.600000 1.800000 0
1.700000 1.800000 0
1.800000 1.800000 0
1.900000 1.800000 0
2.000000 1.800000 0
0.000000 1.900000 0
0.100000 1.900000 0
0.200000 1.900000 0
0.300000 1.900000 0
0.400000 1.900000 0
0.500000 1.900000 0
0.600000 1.900000 0
0.700000 1.900000 0
0.800000 1.900000 0
0.900000 1.900000 0
1.000000 1.900000 0
1.100000 1.900000 0
1.200000 1.900000 0
1.300000 1.900000 0
1.400000 1.900000 0
1.500000 1.900000 0
1.600000 1.900000 0
1.700000 1.900000 0
1.800000 1.900000 0
1.900000 1.900000 0
2.000000 1.900000 0
0.000000 2.000000 0
0.100000 2.000000 0
0.200000 2.000000 0
0.300000 2.000000 0
0.400000 2.000000 0
0.500000 2.000000 0
0.600000 2.000000 0
0.700000 2.000000 0
0.800000 2.000000 0
0.900000 2.000000 0
1.000000 2.000000 0
1.100000 2.000000 0
1.200000 2.000000 0
1.300000 2.000000 0
1.400000 2.000000 0
1.500000 2.000000 0
1.600000 2.000000 0
1.700000 2.000000 0
1.800000 2.000000 0
1.900000 2.000000 0
2.000000 2.000000 0
POINT_DATA 441 

VECTORS velocity float
0.000000 0.000000 0
-0.000008 0.000000 0
-0.000009 0.000000 0
-0.000003 0.000000 0
0.000003 0.000000 0
0.000007 0.000000 0
0.000006 0.000000 0
0.000003 0.000000 0
-0.000001 0.000000 0
-0.000003 0.000000 0
-0.000003 0.000000 0
-0.000002 0.000000 0
-0.000001 0.000000 0
0.000000 0.000000 0
0.000001 0.000000 0
0.000001 0.000000 0
0.000000 0.000000 0
-0.000000 0.000000 0
-0.000000 0.000000 0
-0.000000 0.000000 0
-0.000000 0.000000 0
0.000000 -0.000012 0
0.000022 -0.000039 0
0.000053 -0.000032 0
0.000082 -0.000013 0
0.000101 0.000005 0
0.000106 0.000017 0
0.000096 0.000023 0
0.000070 0.000026 0
0.000034 0.000028 0
-0.000010 0.000031 0
-0.000055 0.000033 0
-0.000097 0.000033 0
-0.000133 0.000030 0
-0.000161 0.000024 0
-0.000181 0.000017 0
-0.000194 0.000010 0
-0.000200 0.000005 0
-0.000202 0.000001 0
-0.000202 -0.000001 0
-0.000201 -0.000001 0
-0.000201 -0.000000 0
0.000000 -0.000003 0
0.000030 -0.000060 0
0.000067 -0.000048 0
0.000095 -0.000031 0
0.000110 -0.000013 0
0.000111 0.000005 0
0.000098 0.000026 0
0.000072 0.000050 0
0.000033 0.000071 0
-0.000014 0.000085 0
-0.000064 0.000089 0
-0.000112 0.000083 0
-0.000154 0.000069 0
-0.000186 0.000051 0
-0.000207 0.000034 0
-0.000220 0.000019 0
-0.000226 0.000008 0
-0.000227 0.000001 0
-0.000226 -0.000002 0
-0.000225 -0.000001 0
-0.000225 -0.000001 0
0.000000 0.000005 0
0.000037 -0.000085 0
0.000071 -0.000084 0
0.000096 -0.000066 0
0.000112 -0.000037 0
0.000117 0.000003 0
0.000107 0.000049 0
0.000081 0.000092 0
0.000040 0.000125 0
-0.000013 0.000142 0
-0.000069 0.000142 0
-0.000122 0.000127 0
-0.000164 0.000102 0
-0.000195 0.000074 0
-0.000214 0.000048 0
-0.000224 0.000026 0
-0.000227 0.000011 0
-0.000226 0.000001 0
-0.000224 -0.000003 0
-0.000222 -0.000002 0
-0.000222 -0.000001 0
0.000000 0.000002 0
0.000037 -0.000124 0
0.000072 -0.000126 0
0.000103 -0.000095 0
0.000126 -0.000046 0
0.000135 0.000014 0
0.000126 0.000077 0
0.000096 0.000135 0
0.000048 0.000177 0
-0.000013 0.000197 0
-0.000077 0.000194 0
-0.000134 0.000171 0
-0.000177 0.000136 0
-0.000206 0.000097 0
-0.000221 0.000061 0
-0.000226 0.000032 0
-0.000225 0.000011 0
-0.000221 -0.000001 0
-0.000217 -0.000005 0
-0.000215 -0.000003 0
-0.000214 -0.000001 0
0.000000 -0.000003 0
0.000035 -0.000166 0
0.000078 -0.000162 0
0.000117 -0.000119 0
0.000145 -0.000057 0
0.000156 0.000018 0
0.000147 0.000097 0
0.000113 0.000172 0
0.000058 0.000230 0
-0.000012 0.000260 0
-0.000084 0.000256 0
-0.000146 0.000223 0
-0.000191 0.000174 0
-0.000217 0.000119 0
-0.000227 0.000070 0
-0.000227 0.000032 0
-0.000221 0.000007 0
-0.000213 -0.000006 0
-0.000207 -0.000009 0
-0.000203 -0.000005 0
-0.000203 -0.000001 0
0.000000 -0.000001 0
0.000038 -0.000205 0
0.000086 -0.000200 0
0.000128 -0.000152 0
0.000159 -0.000081 0
0.000174 0.000010 0
0.000167 0.000114 0
0.000132 0.000216 0
0.000071 0.000297 0
-0.000009 0.000337 0
-0.000091 0.000329 0
-0.000158 0.000280 0
-0.000203 0.000209 0
-0.000225 0.000135 0
-0.000229 0.000072 0
-0.000222 0.000026 0
-0.000211 -0.000003 0
-0.000200 -0.000015 0
-0.000190 -0.000016 0
-0.000185 -0.000007 0
-0.000185 -0.000002 0
0.000000 0.000002 0
0.000039 -0.000245 0
0.000086 -0.000247 0
0.000129 -0.000194 0
0.000163 -0.000111 0
0.000183 0.000001 0
0.000181 0.000134 0
0.000148 0.000268 0
0.000082 0.000375 0
-0.000005 0.000425 0
-0.000095 0.000409 0
-0.000165 0.000338 0
-0.000208 0.000240 0
-0.000223 0.000144 0
-0.000220 0.000067 0
-0.000208 0.000014 0
-0.000192 -0.000016 0
-0.000177 -0.000027 0
-0.000166 -0.000023 0
-0.000160 -0.000010 0
-0.000160 -0.000002 0
0.000000 0.000001 0
0.000035 -0.000288 0
0.000077 -0.000294 0
0.000118 -0.000236 0
0.000154 -0.000141 0
0.000177 -0.000009 0
0.000179 0.000153 0
0.000150 0.000320 0
0.000086 0.000454 0
-0.000002 0.000516 0
-0.000091 0.000489 0
-0.000158 0.000392 0
-0.000194 0.000266 0
-0.000203 0.000147 0
-0.000194 0.000056 0
-0.000177 -0.000003 0
-0.000159 -0.000033 0
-0.000144 -0.000041 0
-0.000132 -0.000032 0
-0.000127 -0.000013 0
-0.000126 -0.000002 0
0.000000 -0.000001 0
0.000026 -0.000325 0
0.000060 -0.000333 0
0.000094 -0.000271 0
0.000124 -0.000168 0
0.000145 -0.000021 0
0.000149 0.000164 0
0.000127 0.000363 0
0.000075 0.000526 0
0.000001 0.000601 0
-0.000073 0.000563 0
-0.000128 0.000440 0
-0.000154 0.000284 0
-0.000156 0.000144 0
-0.000145 0.000041 0
-0.000129 -0.000021 0
-0.000113 -0.000050 0
-0.000099 -0.000054 0
-0.000090 -0.000040 0
-0.000085 -0.000016 0
-0.000085 -0.000002 0
0.000000 -0.000001 0
0.000014 -0.000348 0
0.000034 -0.000359 0
0.000054 -0.000296 0
0.000071 -0.000190 0
0.000084 -0.000035 0
0.000088 0.000168 0
0.000077 0.000392 0
0.000048 0.000579 0
0.000005 0.000664 0
-0.000039 0.000618 0
-0.000069 0.000473 0
-0.000083 0.000295 0
-0.000082 0.000139 0
-0.000074 0.000029 0
-0.000063 -0.000035 0
-0.000053 -0.000063 0
-0.000045 -0.000064 0
-0.000039 -0.000047 0
-0.000036 -0.000018 0
-0.000036 -0.000003 0
0.000000 0.000000 0
0.000001 -0.000357 0
0.000003 -0.000369 0
0.000004 -0.000308 0
0.000004 -0.000200 0
0.000005 -0.000041 0
0.000006 0.000169 0
0.000007 0.000402 0
0.000008 0.000599 0
0.000008 0.000688 0
0.000008 0.000638 0
0.000008 0.000484 0
0.000009 0.000297 0
0.000010 0.000135 0
0.000012 0.000022 0
0.000013 -0.000042 0
0.000015 -0.000069 0
0.000016 -0.000068 0
0.000017 -0.000049 0
0.000018 -0.000019 0
0.000018 -0.000003 0
0.000000 0.000000 0
-0.000013 -0.000350 0
-0.000030 -0.000361 0
-0.000047 -0.000300 0
-0.000063 -0.000193 0
-0.000075 -0.000037 0
-0.000077 0.000166 0
-0.000064 0.000391 0
-0.000033 0.000579 0
0.000011 0.000665 0
0.000054 0.000618 0
0.000086 0.000472 0
0.000102 0.000292 0
0.000104 0.000136 0
0.000098 0.000025 0
0.000091 -0.000039 0
0.000083 -0.000066 0
0.000078 -0.000066 0
0.000074 -0.000048 0
0.000072 -0.000019 0
0.000072 -0.000002 0
0.000000 -0.000000 0
-0.000026 -0.000328 0
-0.000058 -0.000336 0
-0.000090 -0.000274 0
-0.000118 -0.000172 0
-0.000138 -0.000027 0
-0.000141 0.000158 0
-0.000117 0.000359 0
-0.000063 0.000524 0
0.000013 0.000601 0
0.000089 0.000563 0
0.000146 0.000437 0
0.000174 0.000280 0
0.000180 0.000138 0
0.000172 0.000035 0
0.000159 -0.000027 0
0.000146 -0.000056 0
0.000135 -0.000059 0
0.000127 -0.000044 0
0.000123 -0.000017 0
0.000123 -0.000002 0
0.000000 -0.000000 0
-0.000035 -0.000293 0
-0.000078 -0.000297 0
-0.000119 -0.000238 0
-0.000154 -0.000144 0
-0.000176 -0.000015 0
-0.000177 0.000145 0
-0.000145 0.000312 0
-0.000078 0.000449 0
0.000014 0.000512 0
0.000107 0.000485 0
0.000178 0.000387 0
0.000218 0.000258 0
0.000230 0.000138 0
0.000225 0.000046 0
0.000212 -0.000012 0
0.000197 -0.000041 0
0.000184 -0.000048 0
0.000174 -0.000037 0
0.000169 -0.000015 0
0.000169 -0.000002 0
0.000000 -0.000000 0
-0.000040 -0.000250 0
-0.000089 -0.000251 0
-0.000135 -0.000198 0
-0.000171 -0.000115 0
-0.000192 -0.000005 0
-0.000188 0.000126 0
-0.000151 0.000259 0
-0.000080 0.000366 0
0.000014 0.000416 0
0.000110 0.000399 0
0.000187 0.000326 0
0.000235 0.000228 0
0.000256 0.000131 0
0.000257 0.000054 0
0.000248 0.000001 0
0.000235 -0.000027 0
0.000223 -0.000036 0
0.000213 -0.000029 0
0.000208 -0.000012 0
0.000208 -0.000002 0
0.000000 -0.000000 0
-0.000044 -0.000203 0
-0.000096 -0.000202 0
-0.000142 -0.000157 0
-0.000177 -0.000087 0
-0.000194 0.000002 0
-0.000186 0.000104 0
-0.000146 0.000205 0
-0.000077 0.000284 0
0.000013 0.000322 0
0.000105 0.000312 0
0.000183 0.000261 0
0.000236 0.000190 0
0.000265 0.000116 0
0.000274 0.000054 0
0.000272 0.000010 0
0.000263 -0.000016 0
0.000253 -0.000026 0
0.000245 -0.000022 0
0.000240 -0.000010 0
0.000239 -0.000002 0
0.000000 -0.000000 0
-0.000046 -0.000154 0
-0.000100 -0.000152 0
-0.000147 -0.000116 0
-0.000180 -0.000063 0
-0.000193 0.000004 0
-0.000181 0.000079 0
-0.000141 0.000151 0
-0.000074 0.000207 0
0.000010 0.000234 0
0.000097 0.000229 0
0.000174 0.000195 0
0.000231 0.000146 0
0.000266 0.000093 0
0.000283 0.000047 0
0.000287 0.000012 0
0.000283 -0.000009 0
0.000276 -0.000018 0
0.000269 -0.000016 0
0.000264 -0.000007 0
0.000264 -0.000001 0
0.000000 -0.000000 0
-0.000049 -0.000103 0
-0.000106 -0.000101 0
-0.000153 -0.000076 0
-0.000185 -0.000041 0
-0.000197 0.000003 0
-0.000182 0.000052 0
-0.000141 0.000098 0
-0.000076 0.000133 0
0.000004 0.000151 0
0.000089 0.000148 0
0.000165 0.000128 0
0.000225 0.000097 0
0.000266 0.000063 0
0.000288 0.000033 0
0.000297 0.000010 0
0.000296 -0.000005 0
0.000291 -0.000011 0
0.000284 -0.000011 0
0.000280 -0.000005 0
0.000280 -0.000001 0
0.000000 -0.000000 0
-0.000048 -0.000049 0
-0.000103 -0.000048 0
-0.000149 -0.000036 0
-0.000180 -0.000019 0
-0.000190 0.000001 0
-0.000176 0.000023 0
-0.000138 0.000045 0
-0.000079 0.000061 0
-0.000005 0.000069 0
0.000072 0.000068 0
0.000143 0.000059 0
0.000200 0.000045 0
0.000240 0.000030 0
0.000263 0.000016 0
0.000273 0.000005 0
0.000273 -0.000002 0
0.000268 -0.000006 0
0.000262 -0.000006 0
0.000257 -0.000002 0
0.000257 -0.000000 0
0.000000 0.000000 0
-0.000000 0.000000 0
-0.000000 0.000000 0
-0.000000 0.000000 0
-0.000000 0.000000 0
-0.000000 0.000000 0
-0.000000 0.000000 0
-0.000000 0.000000 0
-0.000000 0.000000 0
-0.000000 0.000000 0
-0.000000 0.000000 0
0.000000 0.000000 0
0.000000 0.000000 0
0.000000 0.000000 0
0.000000 0.000000 0
0.000000 0.000000 0
0.000000 0.000000 0
0.000000 0.000000 0
0.000000 0.000000 0
0.000000 0.000000 0
0.000000 0.000000 0

CELL_DATA 400 
SCALARS pressure float 1 
LOOKUP_TABLE default 
0.242574
0.242605
0.242641
0.242654
0.242642
0.242615
0.242592
0.242581
0.242584
0.242595
0.242608
0.242615
0.242618
0.242617
0.242614
0.242612
0.242611
0.242612
0.242613
0.242613
0.219621
0.219631
0.219622
0.219605
0.219592
0.219591
0.219598
0.219608
0.219616
0.219619
0.219618
0.219614
0.219611
0.219609
0.219609
0.219610
0.219611
0.219613
0.219614
0.219614
0.196634
0.196608
0.196589
0.196588
0.196601
0.196618
0.196629
0.196630
0.196623
0.196614
0.196607
0.196604
0.196605
0.196607
0.196610
0.196613
0.196614
0.196614
0.196615
0.196615
0.173613
0.173596
0.173598
0.173612
0.173626
0.173631
0.173627
0.173618
0.173608
0.173603
0.173602
0.173605
0.173609
0.173612
0.173614
0.173615
0.173615
0.173615
0.173615
0.173616
0.150607
0.150611
0.150618
0.150621
0.150620
0.150615
0.150610
0.150607
0.150606
0.150608
0.150610
0.150612
0.150613
0.150614
0.150614
0.150614
0.150614
0.150615
0.150616
0.150616
0.127620
0.127622
0.127616
0.127609
0.127605
0.127606
0.127609
0.127613
0.127616
0.127616
0.127615
0.127613
0.127612
0.127612
0.127613
0.127614
0.127615
0.127616
0.127616
0.127617
0.104626
0.104617
0.104608
0.104605
0.104607
0.104613
0.104618
0.104620
0.104619
0.104616
0.104613
0.104611
0.104612
0.104613
0.104614
0.104615
0.104616
0.104617
0.104617
0.104618
0.081620
0.081614
0.081612
0.081613
0.081616
0.081619
0.081619
0.081618
0.081615
0.081613
0.081612
0.081613
0.081614
0.081615
0.081616
0.081617
0.081617
0.081618
0.081618
0.081619
0.058617
0.058619
0.058620
0.058619
0.058617
0.058616
0.058615
0.058615
0.058615
0.058616
0.058616
0.058617
0.058617
0.058617
0.058618
0.058618
0.058618
0.058619
0.058619
0.058620
0.035622
0.035624
0.035622
0.035618
0.035615
0.035615
0.035616
0.035618
0.035619
0.035620
0.035620
0.035619
0.035619
0.035619
0.035619
0.035619
0.035620
0.035620
0.035620
0.035620
0.012625
0.012624
0.012621
0.012618
0.012618
0.012619
0.012621
0.012622
0.012623
0.012622
0.012622
0.012621
0.012621
0.012621
0.012621
0.012621
0.012621
0.012621
0.012621
0.012622
-0.010376
-0.010376
-0.010377
-0.010377
-0.010377
-0.010377
-0.010376
-0.010376
-0.010376
-0.010376
-0.010376
-0.010376
-0.010377
-0.010377
-0.010377
-0.010377
-0.010377
-0.010377
-0.010377
-0.010377
-0.033376
-0.033374
-0.033373
-0.033373
-0.033374
-0.033375
-0.033375
-0.033374
-0.033374
-0.033373
-0.033373
-0.033373
-0.033374
-0.033374
-0.033375
-0.033375
-0.033376
-0.033376
-0.033376
-0.033376
-0.056374
-0.056372
-0.056371
-0.056372
-0.056373
-0.056374
-0.056373
-0.056372
-0.056371
-0.056370
-0.056370
-0.056371
-0.056372
-0.056372
-0.056373
-0.056374
-0.056374
-0.056375
-0.056375
-0.056375
-0.079372
-0.079371
-0.079371
-0.079371
-0.079371
-0.079371
-0.079370
-0.079369
-0.079368
-0.079368
-0.079368
-0.079369
-0.079370
-0.079371
-0.079371
-0.079372
-0.079373
-0.079373
-0.079374
-0.079374
-0.102371
-0.102371
-0.102370
-0.102369
-0.102369
-0.102369
-0.102368
-0.102368
-0.102367
-0.102367
-0.102367
-0.102367
-0.102368
-0.102369
-0.102370
-0.102370
-0.102371
-0.102372
-0.102373
-0.102373
-0.125371
-0.125370
-0.125369
-0.125368
-0.125367
-0.125367
-0.125367
-0.125367
-0.125366
-0.125366
-0.125366
-0.125366
-0.125367
-0.125367
-0.125368
-0.125369
-0.125370
-0.125371
-0.125372
-0.125372
-0.148370
-0.148369
-0.148368
-0.148367
-0.148367
-0.148367
-0.148366
-0.148366
-0.148365
-0.148364
-0.148364
-0.148365
-0.148365
-0.148366
-0.148367
-0.148368
-0.148369
-0.148370
-0.148371
-0.148371
-0.171369
-0.171368
-0.171368
-0.171367
-0.171366
-0.171365
-0.171365
-0.171364
-0.171364
-0.171363
-0.171363
-0.171363
-0.171364
-0.171365
-0.171366
-0.171367
-0.171368
-0.171369
-0.171370
-0.171370
-0.194369
-0.194368
-0.194367
-0.194366
-0.194365
-0.194364
-0.194363
-0.194363
-0.194362
-0.194362
-0.194362
-0.194362
-0.194363
-0.194363
-0.194364
-0.194365
-0.194367
-0.194368
-0.194369
-0.194370

SCALARS temperature float 1 
LOOKUP_TABLE default 
0.000034
0.000261
0.000696
0.001309
0.002050
0.002854
0.003651
0.004366
0.004937
0.005319
0.005499
0.005491
0.005332
0.005072
0.004759
0.004439
0.004149
0.003912
0.003747
0.003663
0.000036
0.000277
0.000740
0.001391
0.002180
0.003040
0.003891
0.004652
0.005255
0.005650
0.005822
0.005792
0.005601
0.005305
0.004958
0.004609
0.004294
0.004041
0.003865
0.003776
0.000041
0.000311
0.000831
0.001566
0.002459
0.003435
0.004402
0.005262
0.005932
0.006350
0.006504
0.006421
0.006157
0.005781
0.005359
0.004945
0.004580
0.004289
0.004090
0.003990
0.000049
0.000365
0.000978
0.001850
0.002917
0.004090
0.005255
0.006286
0.007069
0.007523
0.007634
0.007448
0.007049
0.006531
0.005978
0.005455
0.005005
0.004656
0.004418
0.004300
0.000060
0.000444
0.001192
0.002267
0.003598
0.005078
0.006559
0.007864
0.008825
0.009323
0.009345
0.008973
0.008342
0.007590
0.006830
0.006142
0.005569
0.005133
0.004842
0.004699
0.000074
0.000548
0.001481
0.002838
0.004547
0.006481
0.008443
0.010173
0.011406
0.011956
0.011807
0.011115
0.010104
0.008988
0.007922
0.006998
0.006255
0.005705
0.005344
0.005168
0.000093
0.000678
0.001842
0.003567
0.005788
0.008359
0.011026
0.013395
0.015040
0.015641
0.015188
0.013971
0.012372
0.010723
0.009231
0.007994
0.007034
0.006341
0.005897
0.005682
0.000113
0.000823
0.002255
0.004419
0.007281
0.010692
0.014330
0.017617
0.019855
0.020503
0.019556
0.017539
0.015095
0.012722
0.010684
0.009064
0.007850
0.006998
0.006461
0.006203
0.000134
0.000969
0.002673
0.005303
0.008879
0.013284
0.018130
0.022607
0.025628
0.026311
0.024665
0.021568
0.018042
0.014797
0.012138
0.010104
0.008628
0.007616
0.006988
0.006689
0.000150
0.001090
0.003028
0.006067
0.010302
0.015679
0.021766
0.027520
0.031393
0.032102
0.029669
0.025391
0.020735
0.016626
0.013383
0.010980
0.009278
0.008132
0.007428
0.007095
0.000160
0.001163
0.003243
0.006538
0.011194
0.017224
0.024178
0.030859
0.035358
0.036091
0.033089
0.027954
0.022505
0.017816
0.014195
0.011561
0.009720
0.008491
0.007740
0.007384
0.000163
0.001176
0.003279
0.006607
0.011308
0.017398
0.024433
0.031219
0.035814
0.036568
0.033525
0.028328
0.022823
0.018090
0.014433
0.011771
0.009908
0.008662
0.007899
0.007537
0.000157
0.001131
0.003136
0.006274
0.010639
0.016184
0.022488
0.028509
0.032620
0.033401
0.030877
0.026446
0.021649
0.017424
0.014083
0.011601
0.009835
0.008640
0.007903
0.007549
0.000144
0.001036
0.002853
0.005644
0.009427
0.014082
0.019230
0.024048
0.027363
0.028156
0.026432
0.023171
0.019476
0.016076
0.013277
0.011121
0.009544
0.008454
0.007771
0.007440
0.000127
0.000918
0.002507
0.004894
0.008033
0.011764
0.015754
0.019400
0.021935
0.022721
0.021744
0.019599
0.016991
0.014446
0.012238
0.010461
0.009112
0.008154
0.007543
0.007243
0.000111
0.000800
0.002166
0.004176
0.006745
0.009703
0.012767
0.015510
0.017451
0.018212
0.017772
0.016462
0.014708
0.012870
0.011180
0.009753
0.008627
0.007803
0.007266
0.006999
0.000096
0.000698
0.001877
0.003582
0.005711
0.008100
0.010516
0.012650
0.014197
0.014927
0.014816
0.014045
0.012872
0.011545
0.010250
0.009103
0.008164
0.007457
0.006987
0.006750
0.000085
0.000620
0.001661
0.003145
0.004968
0.006979
0.008978
0.010737
0.012042
0.012742
0.012812
0.012359
0.011546
0.010551
0.009526
0.008579
0.007780
0.007163
0.006746
0.006533
0.000077
0.000569
0.001520
0.002865
0.004501
0.006285
0.008043
0.009588
0.010757
0.011435
0.011597
0.011313
0.010701
0.009901
0.009039
0.008218
0.007508
0.006951
0.006569
0.006373
0.000074
0.000543
0.001449
0.002726
0.004273
0.005953
0.007602
0.009053
0.010160
0.010826
0.011025
0.010813
0.010290
0.009576
0.008791
0.008030
0.007364
0.006837
0.006475
0.006288


SCALARS Species_1 float 1 
LOOKUP_TABLE default 
0.000512
0.001531
0.002536
0.003520
0.004473
0.005390
0.006261
0.007082
0.007847
0.008551
0.009191
0.009764
0.010270
0.010708
0.011079
0.011385
0.011627
0.011806
0.011925
0.011984
0.000511
0.001527
0.002530
0.003511
0.004462
0.005376
0.006246
0.007065
0.007828
0.008531
0.009169
0.009741
0.010246
0.010683
0.011054
0.011359
0.011600
0.011779
0.011897
0.011956
0.000508
0.001520
0.002519
0.003495
0.004442
0.005352
0.006218
0.007034
0.007794
0.008493
0.009129
0.009699
0.010201
0.010637
0.011006
0.011310
0.011550
0.011728
0.011846
0.011905
0.000505
0.001510
0.002502
0.003472
0.004413
0.005317
0.006178
0.006988
0.007743
0.008439
0.009071
0.009637
0.010136
0.010569
0.010936
0.011238
0.011476
0.011654
0.011771
0.011829
0.000501
0.001497
0.002480
0.003442
0.004375
0.005271
0.006124
0.006928
0.007677
0.008366
0.008993
0.009554
0.010050
0.010479
0.010842
0.011142
0.011378
0.011554
0.011671
0.011728
0.000495
0.001481
0.002453
0.003405
0.004327
0.005214
0.006057
0.006853
0.007594
0.008276
0.008896
0.009451
0.009941
0.010365
0.010725
0.011021
0.011255
0.011429
0.011544
0.011602
0.000489
0.001461
0.002421
0.003360
0.004270
0.005145
0.005977
0.006762
0.007493
0.008167
0.008779
0.009327
0.009810
0.010228
0.010583
0.010875
0.011107
0.011278
0.011392
0.011449
0.000481
0.001439
0.002383
0.003307
0.004204
0.005065
0.005885
0.006657
0.007377
0.008040
0.008642
0.009181
0.009657
0.010069
0.010418
0.010706
0.010933
0.011103
0.011215
0.011271
0.000473
0.001413
0.002341
0.003249
0.004129
0.004975
0.005780
0.006539
0.007245
0.007896
0.008487
0.009016
0.009483
0.009888
0.010231
0.010513
0.010737
0.010904
0.011014
0.011069
0.000463
0.001385
0.002295
0.003185
0.004047
0.004876
0.005665
0.006408
0.007100
0.007738
0.008316
0.008835
0.009292
0.009688
0.010024
0.010302
0.010521
0.010684
0.010793
0.010846
0.000453
0.001355
0.002246
0.003116
0.003960
0.004771
0.005542
0.006269
0.006945
0.007568
0.008133
0.008640
0.009087
0.009474
0.009803
0.010075
0.010290
0.010450
0.010556
0.010608
0.000443
0.001324
0.002194
0.003045
0.003869
0.004661
0.005414
0.006123
0.006783
0.007390
0.007942
0.008437
0.008873
0.009252
0.009573
0.009838
0.010048
0.010205
0.010309
0.010360
0.000432
0.001293
0.002142
0.002973
0.003777
0.004550
0.005284
0.005975
0.006619
0.007211
0.007749
0.008231
0.008657
0.009026
0.009340
0.009599
0.009805
0.009958
0.010059
0.010110
0.000422
0.001262
0.002091
0.002901
0.003686
0.004440
0.005156
0.005830
0.006458
0.007035
0.007559
0.008030
0.008445
0.008806
0.009112
0.009365
0.009566
0.009715
0.009815
0.009864
0.000412
0.001233
0.002042
0.002834
0.003600
0.004336
0.005035
0.005693
0.006305
0.006868
0.007380
0.007839
0.008245
0.008598
0.008897
0.009145
0.009341
0.009487
0.009584
0.009632
0.000403
0.001206
0.001998
0.002772
0.003522
0.004242
0.004925
0.005568
0.006167
0.006718
0.007219
0.007668
0.008065
0.008410
0.008703
0.008945
0.009138
0.009281
0.009376
0.009423
0.000396
0.001184
0.001960
0.002720
0.003455
0.004161
0.004831
0.005462
0.006049
0.006589
0.007080
0.007521
0.007911
0.008249
0.008537
0.008775
0.008964
0.009105
0.009198
0.009244
0.000390
0.001165
0.001931
0.002678
0.003402
0.004097
0.004757
0.005377
0.005955
0.006487
0.006971
0.007405
0.007789
0.008123
0.008407
0.008641
0.008827
0.008966
0.009058
0.009104
0.000386
0.001153
0.001910
0.002649
0.003366
0.004053
0.004705
0.005319
0.005891
0.006417
0.006896
0.007326
0.007706
0.008036
0.008316
0.008549
0.008733
0.008870
0.008961
0.009006
0.000383
0.001147
0.001899
0.002635
0.003347
0.004030
0.004679
0.005290
0.005858
0.006381
0.006858
0.007285
0.007663
0.007991
0.008271
0.008501
0.008685
0.008821
0.008912
0.008957


SCALARS Species_2 float 1 
LOOKUP_TABLE default 
0.000236
0.000703
0.001152
0.001571
0.001953
0.002290
0.002576
0.002809
0.002989
0.003116
0.003197
0.003235
0.003240
0.003218
0.003179
0.003131
0.003082
0.003039
0.003008
0.002991
0.000239
0.000711
0.001164
0.001589
0.001975
0.002316
0.002605
0.002841
0.003023
0.003152
0.003234
0.003273
0.003278
0.003257
0.003218
0.003170
0.003121
0.003077
0.003045
0.003028
0.000244
0.000727
0.001190
0.001624
0.002019
0.002367
0.002663
0.002905
0.003090
0.003223
0.003307
0.003348
0.003353
0.003331
0.003292
0.003243
0.003193
0.003149
0.003117
0.003100
0.000252
0.000750
0.001229