# vtk DataFile Version 2.0
generated by CFD-lab course output (written by Tobias Neckel) 
ASCII

DATASET STRUCTURED_GRID
DIMENSIONS  21 21 1 
POINTS 441 float

0.000000 0.000000 0
0.100000 0.000000 0
0.200000 0.000000 0
0.300000 0.000000 0
0.400000 0.000000 0
0.500000 0.000000 0
0.600000 0.000000 0
0.700000 0.000000 0
0.800000 0.000000 0
0.900000 0.000000 0
1.000000 0.000000 0
1.100000 0.000000 0
1.200000 0.000000 0
1.300000 0.000000 0
1.400000 0.000000 0
1.500000 0.000000 0
1.600000 0.000000 0
1.700000 0.000000 0
1.800000 0.000000 0
1.900000 0.000000 0
2.000000 0.000000 0
0.000000 0.100000 0
0.100000 0.100000 0
0.200000 0.100000 0
0.300000 0.100000 0
0.400000 0.100000 0
0.500000 0.100000 0
0.600000 0.100000 0
0.700000 0.100000 0
0.800000 0.100000 0
0.900000 0.100000 0
1.000000 0.100000 0
1.100000 0.100000 0
1.200000 0.100000 0
1.300000 0.100000 0
1.400000 0.100000 0
1.500000 0.100000 0
1.600000 0.100000 0
1.700000 0.100000 0
1.800000 0.100000 0
1.900000 0.100000 0
2.000000 0.100000 0
0.000000 0.200000 0
0.100000 0.200000 0
0.200000 0.200000 0
0.300000 0.200000 0
0.400000 0.200000 0
0.500000 0.200000 0
0.600000 0.200000 0
0.700000 0.200000 0
0.800000 0.200000 0
0.900000 0.200000 0
1.000000 0.200000 0
1.100000 0.200000 0
1.200000 0.200000 0
1.300000 0.200000 0
1.400000 0.200000 0
1.500000 0.200000 0
1.600000 0.200000 0
1.700000 0.200000 0
1.800000 0.200000 0
1.900000 0.200000 0
2.000000 0.200000 0
0.000000 0.300000 0
0.100000 0.300000 0
0.200000 0.300000 0
0.300000 0.300000 0
0.400000 0.300000 0
0.500000 0.300000 0
0.600000 0.300000 0
0.700000 0.300000 0
0.800000 0.300000 0
0.900000 0.300000 0
1.000000 0.300000 0
1.100000 0.300000 0
1.200000 0.300000 0
1.300000 0.300000 0
1.400000 0.300000 0
1.500000 0.300000 0
1.600000 0.300000 0
1.700000 0.300000 0
1.800000 0.300000 0
1.900000 0.300000 0
2.000000 0.300000 0
0.000000 0.400000 0
0.100000 0.400000 0
0.200000 0.400000 0
0.300000 0.400000 0
0.400000 0.400000 0
0.500000 0.400000 0
0.600000 0.400000 0
0.700000 0.400000 0
0.800000 0.400000 0
0.900000 0.400000 0
1.000000 0.400000 0
1.100000 0.400000 0
1.200000 0.400000 0
1.300000 0.400000 0
1.400000 0.400000 0
1.500000 0.400000 0
1.600000 0.400000 0
1.700000 0.400000 0
1.800000 0.400000 0
1.900000 0.400000 0
2.000000 0.400000 0
0.000000 0.500000 0
0.100000 0.500000 0
0.200000 0.500000 0
0.300000 0.500000 0
0.400000 0.500000 0
0.500000 0.500000 0
0.600000 0.500000 0
0.700000 0.500000 0
0.800000 0.500000 0
0.900000 0.500000 0
1.000000 0.500000 0
1.100000 0.500000 0
1.200000 0.500000 0
1.300000 0.500000 0
1.400000 0.500000 0
1.500000 0.500000 0
1.600000 0.500000 0
1.700000 0.500000 0
1.800000 0.500000 0
1.900000 0.500000 0
2.000000 0.500000 0
0.000000 0.600000 0
0.100000 0.600000 0
0.200000 0.600000 0
0.300000 0.600000 0
0.400000 0.600000 0
0.500000 0.600000 0
0.600000 0.600000 0
0.700000 0.600000 0
0.800000 0.600000 0
0.900000 0.600000 0
1.000000 0.600000 0
1.100000 0.600000 0
1.200000 0.600000 0
1.300000 0.600000 0
1.400000 0.600000 0
1.500000 0.600000 0
1.600000 0.600000 0
1.700000 0.600000 0
1.800000 0.600000 0
1.900000 0.600000 0
2.000000 0.600000 0
0.000000 0.700000 0
0.100000 0.700000 0
0.200000 0.700000 0
0.300000 0.700000 0
0.400000 0.700000 0
0.500000 0.700000 0
0.600000 0.700000 0
0.700000 0.700000 0
0.800000 0.700000 0
0.900000 0.700000 0
1.000000 0.700000 0
1.100000 0.700000 0
1.200000 0.700000 0
1.300000 0.700000 0
1.400000 0.700000 0
1.500000 0.700000 0
1.600000 0.700000 0
1.700000 0.700000 0
1.800000 0.700000 0
1.900000 0.700000 0
2.000000 0.700000 0
0.000000 0.800000 0
0.100000 0.800000 0
0.200000 0.800000 0
0.300000 0.800000 0
0.400000 0.800000 0
0.500000 0.800000 0
0.600000 0.800000 0
0.700000 0.800000 0
0.800000 0.800000 0
0.900000 0.800000 0
1.000000 0.800000 0
1.100000 0.800000 0
1.200000 0.800000 0
1.300000 0.800000 0
1.400000 0.800000 0
1.500000 0.800000 0
1.600000 0.800000 0
1.700000 0.800000 0
1.800000 0.800000 0
1.900000 0.800000 0
2.000000 0.800000 0
0.000000 0.900000 0
0.100000 0.900000 0
0.200000 0.900000 0
0.300000 0.900000 0
0.400000 0.900000 0
0.500000 0.900000 0
0.600000 0.900000 0
0.700000 0.900000 0
0.800000 0.900000 0
0.900000 0.900000 0
1.000000 0.900000 0
1.100000 0.900000 0
1.200000 0.900000 0
1.300000 0.900000 0
1.400000 0.900000 0
1.500000 0.900000 0
1.600000 0.900000 0
1.700000 0.900000 0
1.800000 0.900000 0
1.900000 0.900000 0
2.000000 0.900000 0
0.000000 1.000000 0
0.100000 1.000000 0
0.200000 1.000000 0
0.300000 1.000000 0
0.400000 1.000000 0
0.500000 1.000000 0
0.600000 1.000000 0
0.700000 1.000000 0
0.800000 1.000000 0
0.900000 1.000000 0
1.000000 1.000000 0
1.100000 1.000000 0
1.200000 1.000000 0
1.300000 1.000000 0
1.400000 1.000000 0
1.500000 1.000000 0
1.600000 1.000000 0
1.700000 1.000000 0
1.800000 1.000000 0
1.900000 1.000000 0
2.000000 1.000000 0
0.000000 1.100000 0
0.100000 1.100000 0
0.200000 1.100000 0
0.300000 1.100000 0
0.400000 1.100000 0
0.500000 1.100000 0
0.600000 1.100000 0
0.700000 1.100000 0
0.800000 1.100000 0
0.900000 1.100000 0
1.000000 1.100000 0
1.100000 1.100000 0
1.200000 1.100000 0
1.300000 1.100000 0
1.400000 1.100000 0
1.500000 1.100000 0
1.600000 1.100000 0
1.700000 1.100000 0
1.800000 1.100000 0
1.900000 1.100000 0
2.000000 1.100000 0
0.000000 1.200000 0
0.100000 1.200000 0
0.200000 1.200000 0
0.300000 1.200000 0
0.400000 1.200000 0
0.500000 1.200000 0
0.600000 1.200000 0
0.700000 1.200000 0
0.800000 1.200000 0
0.900000 1.200000 0
1.000000 1.200000 0
1.100000 1.200000 0
1.200000 1.200000 0
1.300000 1.200000 0
1.400000 1.200000 0
1.500000 1.200000 0
1.600000 1.200000 0
1.700000 1.200000 0
1.800000 1.200000 0
1.900000 1.200000 0
2.000000 1.200000 0
0.000000 1.300000 0
0.100000 1.300000 0
0.200000 1.300000 0
0.300000 1.300000 0
0.400000 1.300000 0
0.500000 1.300000 0
0.600000 1.300000 0
0.700000 1.300000 0
0.800000 1.300000 0
0.900000 1.300000 0
1.000000 1.300000 0
1.100000 1.300000 0
1.200000 1.300000 0
1.300000 1.300000 0
1.400000 1.300000 0
1.500000 1.300000 0
1.600000 1.300000 0
1.700000 1.300000 0
1.800000 1.300000 0
1.900000 1.300000 0
2.000000 1.300000 0
0.000000 1.400000 0
0.100000 1.400000 0
0.200000 1.400000 0
0.300000 1.400000 0
0.400000 1.400000 0
0.500000 1.400000 0
0.600000 1.400000 0
0.700000 1.400000 0
0.800000 1.400000 0
0.900000 1.400000 0
1.000000 1.400000 0
1.100000 1.400000 0
1.200000 1.400000 0
1.300000 1.400000 0
1.400000 1.400000 0
1.500000 1.400000 0
1.600000 1.400000 0
1.700000 1.400000 0
1.800000 1.400000 0
1.900000 1.400000 0
2.000000 1.400000 0
0.000000 1.500000 0
0.100000 1.500000 0
0.200000 1.500000 0
0.300000 1.500000 0
0.400000 1.500000 0
0.500000 1.500000 0
0.600000 1.500000 0
0.700000 1.500000 0
0.800000 1.500000 0
0.900000 1.500000 0
1.000000 1.500000 0
1.100000 1.500000 0
1.200000 1.500000 0
1.300000 1.500000 0
1.400000 1.500000 0
1.500000 1.500000 0
1.600000 1.500000 0
1.700000 1.500000 0
1.800000 1.500000 0
1.900000 1.500000 0
2.000000 1.500000 0
0.000000 1.600000 0
0.100000 1.600000 0
0.200000 1.600000 0
0.300000 1.600000 0
0.400000 1.600000 0
0.500000 1.600000 0
0.600000 1.600000 0
0.700000 1.600000 0
0.800000 1.600000 0
0.900000 1.600000 0
1.000000 1.600000 0
1.100000 1.600000 0
1.200000 1.600000 0
1.300000 1.600000 0
1.400000 1.600000 0
1.500000 1.600000 0
1.600000 1.600000 0
1.700000 1.600000 0
1.800000 1.600000 0
1.900000 1.600000 0
2.000000 1.600000 0
0.000000 1.700000 0
0.100000 1.700000 0
0.200000 1.700000 0
0.300000 1.700000 0
0.400000 1.700000 0
0.500000 1.700000 0
0.600000 1.700000 0
0.700000 1.700000 0
0.800000 1.700000 0
0.900000 1.700000 0
1.000000 1.700000 0
1.100000 1.700000 0
1.200000 1.700000 0
1.300000 1.700000 0
1.400000 1.700000 0
1.500000 1.700000 0
1.600000 1.700000 0
1.700000 1.700000 0
1.800000 1.700000 0
1.900000 1.700000 0
2.000000 1.700000 0
0.000000 1.800000 0
0.100000 1.800000 0
0.200000 1.800000 0
0.300000 1.800000 0
0.400000 1.800000 0
0.500000 1.800000 0
0.600000 1.800000 0
0.700000 1.800000 0
0.800000 1.800000 0
0.900000 1.800000 0
1.000000 1.800000 0
1.100000 1.800000 0
1.200000 1.800000 0
1.300000 1.800000 0
1.400000 1.800000 0
1.500000 1.800000 0
1.600000 1.800000 0
1.700000 1.800000 0
1.800000 1.800000 0
1.900000 1.800000 0
2.000000 1.800000 0
0.000000 1.900000 0
0.100000 1.900000 0
0.200000 1.900000 0
0.300000 1.900000 0
0.400000 1.900000 0
0.500000 1.900000 0
0.600000 1.900000 0
0.700000 1.900000 0
0.800000 1.900000 0
0.900000 1.900000 0
1.000000 1.900000 0
1.100000 1.900000 0
1.200000 1.900000 0
1.300000 1.900000 0
1.400000 1.900000 0
1.500000 1.900000 0
1.600000 1.900000 0
1.700000 1.900000 0
1.800000 1.900000 0
1.900000 1.900000 0
2.000000 1.900000 0
0.000000 2.000000 0
0.100000 2.000000 0
0.200000 2.000000 0
0.300000 2.000000 0
0.400000 2.000000 0
0.500000 2.000000 0
0.600000 2.000000 0
0.700000 2.000000 0
0.800000 2.000000 0
0.900000 2.000000 0
1.000000 2.000000 0
1.100000 2.000000 0
1.200000 2.000000 0
1.300000 2.000000 0
1.400000 2.000000 0
1.500000 2.000000 0
1.600000 2.000000 0
1.700000 2.000000 0
1.800000 2.000000 0
1.900000 2.000000 0
2.000000 2.000000 0
POINT_DATA 441 

VECTORS velocity float
0.000000 0.000000 0
-0.000013 0.000000 0
-0.000003 0.000000 0
0.000007 0.000000 0
0.000010 0.000000 0
0.000006 0.000000 0
0.000001 0.000000 0
-0.000004 0.000000 0
-0.000005 0.000000 0
-0.000004 0.000000 0
-0.000002 0.000000 0
0.000000 0.000000 0
0.000002 0.000000 0
0.000002 0.000000 0
0.000001 0.000000 0
0.000000 0.000000 0
-0.000000 0.000000 0
-0.000000 0.000000 0
-0.000000 0.000000 0
-0.000000 0.000000 0
-0.000000 0.000000 0
0.000000 -0.000010 0
0.000023 -0.000034 0
0.000063 -0.000018 0
0.000095 -0.000004 0
0.000113 0.000001 0
0.000114 0.000002 0
0.000101 0.000006 0
0.000074 0.000014 0
0.000038 0.000025 0
-0.000006 0.000036 0
-0.000052 0.000042 0
-0.000097 0.000042 0
-0.000136 0.000036 0
-0.000167 0.000027 0
-0.000190 0.000018 0
-0.000204 0.000010 0
-0.000211 0.000004 0
-0.000213 0.000000 0
-0.000212 -0.000001 0
-0.000211 -0.000001 0
-0.000211 -0.000000 0
0.000000 0.000007 0
0.000038 -0.000055 0
0.000072 -0.000054 0
0.000099 -0.000045 0
0.000115 -0.000029 0
0.000119 -0.000005 0
0.000109 0.000026 0
0.000083 0.000058 0
0.000042 0.000083 0
-0.000009 0.000098 0
-0.000064 0.000099 0
-0.000117 0.000089 0
-0.000162 0.000072 0
-0.000195 0.000053 0
-0.000218 0.000034 0
-0.000232 0.000019 0
-0.000238 0.000008 0
-0.000240 0.000002 0
-0.000239 -0.000001 0
-0.000238 -0.000001 0
-0.000238 -0.000001 0
0.000000 0.000005 0
0.000037 -0.000096 0
0.000070 -0.000100 0
0.000099 -0.000078 0
0.000121 -0.000039 0
0.000130 0.000009 0
0.000122 0.000059 0
0.000093 0.000103 0
0.000046 0.000135 0
-0.000012 0.000150 0
-0.000072 0.000148 0
-0.000128 0.000132 0
-0.000173 0.000107 0
-0.000205 0.000079 0
-0.000225 0.000052 0
-0.000236 0.000029 0
-0.000239 0.000013 0
-0.000239 0.000002 0
-0.000237 -0.000002 0
-0.000236 -0.000002 0
-0.000235 -0.000001 0
0.000000 -0.000004 0
0.000034 -0.000140 0
0.000074 -0.000136 0
0.000111 -0.000097 0
0.000138 -0.000043 0
0.000148 0.000018 0
0.000138 0.000081 0
0.000105 0.000139 0
0.000052 0.000182 0
-0.000013 0.000205 0
-0.000080 0.000205 0
-0.000139 0.000183 0
-0.000185 0.000147 0
-0.000216 0.000106 0
-0.000232 0.000067 0
-0.000238 0.000036 0
-0.000238 0.000013 0
-0.000234 -0.000000 0
-0.000230 -0.000005 0
-0.000227 -0.000003 0
-0.000227 -0.000001 0
0.000000 -0.000004 0
0.000038 -0.000178 0
0.000085 -0.000171 0
0.000125 -0.000125 0
0.000154 -0.000063 0
0.000167 0.000013 0
0.000157 0.000097 0
0.000122 0.000178 0
0.000063 0.000242 0
-0.000011 0.000276 0
-0.000087 0.000274 0
-0.000152 0.000240 0
-0.000200 0.000187 0
-0.000228 0.000129 0
-0.000239 0.000076 0
-0.000239 0.000035 0
-0.000234 0.000008 0
-0.000226 -0.000006 0
-0.000219 -0.000009 0
-0.000215 -0.000005 0
-0.000215 -0.000001 0
0.000000 0.000001 0
0.000043 -0.000217 0
0.000091 -0.000216 0
0.000134 -0.000167 0
0.000167 -0.000092 0
0.000184 0.000006 0
0.000178 0.000118 0
0.000142 0.000229 0
0.000078 0.000316 0
-0.000007 0.000360 0
-0.000093 0.000351 0
-0.000165 0.000299 0
-0.000213 0.000224 0
-0.000237 0.000145 0
-0.000241 0.000078 0
-0.000235 0.000029 0
-0.000223 -0.000001 0
-0.000211 -0.000015 0
-0.000201 -0.000016 0
-0.000196 -0.000007 0
-0.000196 -0.000002 0
0.000000 0.000001 0
0.000042 -0.000264 0
0.000090 -0.000268 0
0.000135 -0.000212 0
0.000172 -0.000120 0
0.000195 0.000001 0
0.000193 0.000143 0
0.000159 0.000285 0
0.000089 0.000397 0
-0.000004 0.000450 0
-0.000098 0.000432 0
-0.000173 0.000358 0
-0.000218 0.000256 0
-0.000235 0.000155 0
-0.000232 0.000074 0
-0.000219 0.000017 0
-0.000202 -0.000015 0
-0.000187 -0.000027 0
-0.000176 -0.000024 0
-0.000170 -0.000010 0
-0.000170 -0.000002 0
0.000000 -0.000001 0
0.000037 -0.000310 0
0.000081 -0.000316 0
0.000125 -0.000252 0
0.000163 -0.000149 0
0.000188 -0.000009 0
0.000190 0.000161 0
0.000159 0.000337 0
0.000091 0.000478 0
-0.000001 0.000544 0
-0.000095 0.000517 0
-0.000165 0.000417 0
-0.000204 0.000284 0
-0.000213 0.000159 0
-0.000204 0.000063 0
-0.000187 0.000000 0
-0.000168 -0.000032 0
-0.000152 -0.000042 0
-0.000140 -0.000033 0
-0.000134 -0.000014 0
-0.000134 -0.000002 0
0.000000 -0.000001 0
0.000028 -0.000347 0
0.000064 -0.000356 0
0.000099 -0.000290 0
0.000130 -0.000180 0
0.000153 -0.000025 0
0.000157 0.000171 0
0.000134 0.000381 0
0.000080 0.000554 0
0.000002 0.000634 0
-0.000076 0.000596 0
-0.000133 0.000468 0
-0.000161 0.000305 0
-0.000164 0.000157 0
-0.000153 0.000048 0
-0.000136 -0.000019 0
-0.000119 -0.000050 0
-0.000105 -0.000055 0
-0.000095 -0.000042 0
-0.000090 -0.000017 0
-0.000090 -0.000002 0
0.000000 0.000000 0
0.000017 -0.000372 0
0.000037 -0.000385 0
0.000057 -0.000319 0
0.000075 -0.000205 0
0.000088 -0.000039 0
0.000093 0.000177 0
0.000082 0.000414 0
0.000051 0.000611 0
0.000006 0.000701 0
-0.000040 0.000654 0
-0.000073 0.000503 0
-0.000087 0.000316 0
-0.000087 0.000151 0
-0.000078 0.000035 0
-0.000067 -0.000034 0
-0.000056 -0.000064 0
-0.000047 -0.000066 0
-0.000041 -0.000048 0
-0.000038 -0.000019 0
-0.000038 -0.000002 0
0.000000 0.000000 0
0.000002 -0.000382 0
0.000003 -0.000397 0
0.000004 -0.000331 0
0.000004 -0.000215 0
0.000005 -0.000044 0
0.000007 0.000179 0
0.000008 0.000425 0
0.000009 0.000632 0
0.000009 0.000726 0
0.000008 0.000675 0
0.000008 0.000514 0
0.000009 0.000318 0
0.000010 0.000148 0
0.000012 0.000028 0
0.000013 -0.000041 0
0.000015 -0.000070 0
0.000017 -0.000071 0
0.000018 -0.000051 0
0.000019 -0.000020 0
0.000019 -0.000003 0
0.000000 -0.000000 0
-0.000014 -0.000375 0
-0.000032 -0.000388 0
-0.000050 -0.000321 0
-0.000066 -0.000207 0
-0.000079 -0.000040 0
-0.000081 0.000175 0
-0.000067 0.000413 0
-0.000034 0.000611 0
0.000011 0.000702 0
0.000056 0.000654 0
0.000090 0.000501 0
0.000106 0.000313 0
0.000108 0.000148 0
0.000103 0.000031 0
0.000095 -0.000037 0
0.000088 -0.000067 0
0.000082 -0.000068 0
0.000078 -0.000050 0
0.000076 -0.000020 0
0.000076 -0.000002 0
0.000000 -0.000000 0
-0.000027 -0.000351 0
-0.000061 -0.000360 0
-0.000094 -0.000295 0
-0.000125 -0.000185 0
-0.000146 -0.000030 0
-0.000149 0.000166 0
-0.000124 0.000378 0
-0.000067 0.000554 0
0.000013 0.000635 0
0.000092 0.000596 0
0.000152 0.000465 0
0.000182 0.000300 0
0.000189 0.000151 0
0.000181 0.000041 0
0.000167 -0.000025 0
0.000154 -0.000056 0
0.000142 -0.000061 0
0.000134 -0.000045 0
0.000131 -0.000018 0
0.000130 -0.000002 0
0.000000 -0.000000 0
-0.000037 -0.000313 0
-0.000082 -0.000319 0
-0.000126 -0.000257 0
-0.000163 -0.000156 0
-0.000187 -0.000018 0
-0.000187 0.000152 0
-0.000154 0.000330 0
-0.000083 0.000475 0
0.000013 0.000543 0
0.000111 0.000515 0
0.000186 0.000412 0
0.000228 0.000277 0
0.000242 0.000150 0
0.000237 0.000052 0
0.000223 -0.000010 0
0.000208 -0.000042 0
0.000194 -0.000049 0
0.000184 -0.000038 0
0.000179 -0.000015 0
0.000179 -0.000002 0
0.000000 0.000000 0
-0.000043 -0.000268 0
-0.000095 -0.000271 0
-0.000144 -0.000214 0
-0.000183 -0.000125 0
-0.000205 -0.000007 0
-0.000200 0.000133 0
-0.000162 0.000275 0
-0.000087 0.000388 0
0.000013 0.000442 0
0.000114 0.000424 0
0.000196 0.000348 0
0.000247 0.000244 0
0.000269 0.000142 0
0.000271 0.000059 0
0.000262 0.000003 0
0.000249 -0.000027 0
0.000236 -0.000037 0
0.000226 -0.000030 0
0.000221 -0.000013 0
0.000220 -0.000002 0
0.000000 -0.000000 0
-0.000047 -0.000219 0
-0.000102 -0.000218 0
-0.000152 -0.000170 0
-0.000190 -0.000095 0
-0.000208 0.000000 0
-0.000199 0.000109 0
-0.000158 0.000217 0
-0.000084 0.000301 0
0.000010 0.000342 0
0.000108 0.000332 0
0.000191 0.000279 0
0.000248 0.000203 0
0.000279 0.000125 0
0.000289 0.000059 0
0.000287 0.000012 0
0.000278 -0.000016 0
0.000268 -0.000026 0
0.000259 -0.000023 0
0.000254 -0.000010 0
0.000254 -0.000001 0
0.000000 -0.000000 0
-0.000049 -0.000166 0
-0.000107 -0.000165 0
-0.000158 -0.000126 0
-0.000194 -0.000069 0
-0.000208 0.000003 0
-0.000196 0.000083 0
-0.000153 0.000159 0
-0.000083 0.000219 0
0.000007 0.000249 0
0.000100 0.000244 0
0.000181 0.000208 0
0.000242 0.000156 0
0.000280 0.000100 0
0.000299 0.000051 0
0.000304 0.000014 0
0.000300 -0.000008 0
0.000292 -0.000018 0
0.000285 -0.000017 0
0.000281 -0.000007 0
0.000280 -0.000001 0
0.000000 -0.000000 0
-0.000053 -0.000111 0
-0.000114 -0.000109 0
-0.000165 -0.000083 0
-0.000200 -0.000045 0
-0.000213 0.000002 0
-0.000198 0.000054 0
-0.000155 0.000103 0
-0.000086 0.000141 0
-0.000000 0.000160 0
0.000090 0.000158 0
0.000172 0.000137 0
0.000236 0.000104 0
0.000280 0.000068 0
0.000304 0.000036 0
0.000314 0.000011 0
0.000313 -0.000004 0
0.000308 -0.000012 0
0.000301 -0.000011 0
0.000297 -0.000005 0
0.000296 -0.000001 0
0.000000 0.000000 0
-0.000052 -0.000052 0
-0.000111 -0.000052 0
-0.000161 -0.000039 0
-0.000194 -0.000021 0
-0.000206 0.000001 0
-0.000192 0.000024 0
-0.000152 0.000047 0
-0.000089 0.000064 0
-0.000011 0.000073 0
0.000071 0.000072 0
0.000147 0.000063 0
0.000208 0.000048 0
0.000251 0.000032 0
0.000276 0.000017 0
0.000287 0.000005 0
0.000288 -0.000002 0
0.000283 -0.000006 0
0.000276 -0.000006 0
0.000271 -0.000003 0
0.000271 -0.000000 0
0.000000 0.000000 0
-0.000000 0.000000 0
-0.000000 0.000000 0
-0.000000 0.000000 0
-0.000000 0.000000 0
-0.000000 0.000000 0
-0.000000 0.000000 0
-0.000000 0.000000 0
-0.000000 0.000000 0
-0.000000 0.000000 0
-0.000000 0.000000 0
0.000000 0.000000 0
0.000000 0.000000 0
0.000000 0.000000 0
0.000000 0.000000 0
0.000000 0.000000 0
0.000000 0.000000 0
0.000000 0.000000 0
0.000000 0.000000 0
0.000000 0.000000 0
0.000000 0.000000 0

CELL_DATA 400 
SCALARS pressure float 1 
LOOKUP_TABLE default 
0.242597
0.242648
0.242659
0.242633
0.242595
0.242568
0.242566
0.242581
0.242602
0.242619
0.242626
0.242624
0.242618
0.242612
0.242608
0.242608
0.242609
0.242610
0.242612
0.242613
0.219637
0.219620
0.219597
0.219584
0.219589
0.219604
0.219619
0.219626
0.219625
0.219619
0.219611
0.219606
0.219604
0.219606
0.219608
0.219610
0.219612
0.219613
0.219613
0.219614
0.196610
0.196585
0.196590
0.196612
0.196633
0.196641
0.196634
0.196619
0.196605
0.196597
0.196597
0.196601
0.196607
0.196611
0.196614
0.196614
0.196614
0.196614
0.196614
0.196615
0.173591
0.173598
0.173619
0.173636
0.173638
0.173627
0.173611
0.173599
0.173595
0.173598
0.173604
0.173610
0.173614
0.173615
0.173615
0.173614
0.173614
0.173614
0.173614
0.173615
0.150609
0.150619
0.150623
0.150620
0.150613
0.150606
0.150603
0.150605
0.150608
0.150611
0.150613
0.150614
0.150614
0.150613
0.150613
0.150613
0.150613
0.150614
0.150615
0.150616
0.127624
0.127615
0.127606
0.127603
0.127607
0.127613
0.127618
0.127619
0.127617
0.127614
0.127611
0.127610
0.127610
0.127611
0.127613
0.127614
0.127615
0.127616
0.127616
0.127617
0.104619
0.104606
0.104604
0.104610
0.104619
0.104624
0.104624
0.104619
0.104614
0.104610
0.104608
0.104609
0.104611
0.104613
0.104615
0.104616
0.104616
0.104617
0.104617
0.104618
0.081614
0.081611
0.081614
0.081619
0.081622
0.081621
0.081618
0.081614
0.081611
0.081610
0.081611
0.081613
0.081615
0.081616
0.081617
0.081617
0.081617
0.081618
0.081618
0.081618
0.058620
0.058620
0.058619
0.058617
0.058616
0.058615
0.058615
0.058616
0.058616
0.058616
0.058616
0.058616
0.058616
0.058617
0.058617
0.058618
0.058618
0.058619
0.058619
0.058619
0.035625
0.035621
0.035616
0.035614
0.035615
0.035617
0.035620
0.035621
0.035621
0.035620
0.035618
0.035617
0.035617
0.035618
0.035619
0.035619
0.035620
0.035620
0.035620
0.035620
0.012625
0.012620
0.012618
0.012617
0.012620
0.012623
0.012624
0.012624
0.012623
0.012621
0.012620
0.012620
0.012620
0.012620
0.012621
0.012621
0.012621
0.012621
0.012621
0.012622
-0.010376
-0.010377
-0.010378
-0.010377
-0.010377
-0.010376
-0.010376
-0.010376
-0.010376
-0.010376
-0.010377
-0.010377
-0.010377
-0.010377
-0.010377
-0.010377
-0.010377
-0.010377
-0.010377
-0.010377
-0.033374
-0.033373
-0.033374
-0.033376
-0.033376
-0.033376
-0.033375
-0.033373
-0.033372
-0.033372
-0.033373
-0.033373
-0.033374
-0.033375
-0.033375
-0.033375
-0.033376
-0.033376
-0.033376
-0.033376
-0.056372
-0.056372
-0.056373
-0.056375
-0.056375
-0.056374
-0.056372
-0.056370
-0.056369
-0.056369
-0.056370
-0.056371
-0.056372
-0.056373
-0.056373
-0.056374
-0.056374
-0.056374
-0.056375
-0.056375
-0.079371
-0.079371
-0.079372
-0.079372
-0.079372
-0.079371
-0.079369
-0.079368
-0.079368
-0.079368
-0.079368
-0.079369
-0.079370
-0.079371
-0.079371
-0.079372
-0.079372
-0.079373
-0.079373
-0.079374
-0.102371
-0.102370
-0.102370
-0.102370
-0.102370
-0.102369
-0.102368
-0.102367
-0.102367
-0.102366
-0.102367
-0.102367
-0.102368
-0.102369
-0.102369
-0.102370
-0.102371
-0.102372
-0.102372
-0.102373
-0.125370
-0.125368
-0.125368
-0.125368
-0.125369
-0.125368
-0.125368
-0.125366
-0.125365
-0.125365
-0.125365
-0.125365
-0.125366
-0.125367
-0.125368
-0.125369
-0.125370
-0.125370
-0.125371
-0.125372
-0.148369
-0.148368
-0.148368
-0.148368
-0.148368
-0.148367
-0.148366
-0.148365
-0.148364
-0.148364
-0.148364
-0.148364
-0.148365
-0.148366
-0.148367
-0.148368
-0.148368
-0.148369
-0.148370
-0.148371
-0.171368
-0.171368
-0.171367
-0.171367
-0.171366
-0.171366
-0.171365
-0.171364
-0.171363
-0.171363
-0.171363
-0.171363
-0.171364
-0.171364
-0.171365
-0.171366
-0.171367
-0.171368
-0.171369
-0.171370
-0.194369
-0.194368
-0.194367
-0.194366
-0.194365
-0.194364
-0.194364
-0.194363
-0.194362
-0.194361
-0.194361
-0.194361
-0.194362
-0.194363
-0.194364
-0.194365
-0.194366
-0.194367
-0.194368
-0.194369

SCALARS temperature float 1 
LOOKUP_TABLE default 
0.000036
0.000273
0.000729
0.001371
0.002147
0.002992
0.003831
0.004590
0.005202
0.005621
0.005832
0.005850
0.005712
0.005466
0.005163
0.004850
0.004562
0.004327
0.004163
0.004080
0.000038
0.000289
0.000773
0.001453
0.002278
0.003178
0.004072
0.004878
0.005522
0.005954
0.006159
0.006154
0.005984
0.005702
0.005365
0.005022
0.004711
0.004460
0.004285
0.004196
0.000043
0.000324
0.000865
0.001629
0.002558
0.003575
0.004586
0.005490
0.006202
0.006659
0.006845
0.006789
0.006546
0.006185
0.005773
0.005366
0.005004
0.004716
0.004517
0.004418
0.000051
0.000379
0.001013
0.001915
0.003018
0.004233
0.005443
0.006518
0.007344
0.007837
0.007981
0.007823
0.007446
0.006943
0.006401
0.005886
0.005440
0.005093
0.004856
0.004739
0.000062
0.000458
0.001229
0.002334
0.003702
0.005223
0.006749
0.008099
0.009104
0.009643
0.009699
0.009356
0.008748
0.008013
0.007266
0.006585
0.006017
0.005583
0.005293
0.005151
0.000077
0.000563
0.001518
0.002907
0.004654
0.006628
0.008635
0.010410
0.011688
0.012279
0.012166
0.011505
0.010520
0.009423
0.008371
0.007456
0.006718
0.006170
0.005811
0.005635
0.000096
0.000693
0.001881
0.003638
0.005897
0.008508
0.011217
0.013630
0.015318
0.015963
0.015548
0.014366
0.012797
0.011171
0.009695
0.008468
0.007513
0.006823
0.006380
0.006165
0.000117
0.000840
0.002296
0.004492
0.007392
0.010843
0.014519
0.017845
0.020124
0.020816
0.019912
0.017937
0.015529
0.013182
0.011162
0.009554
0.008345
0.007496
0.006960
0.006703
0.000138
0.000986
0.002716
0.005379
0.008994
0.013437
0.018316
0.022825
0.025882
0.026610
0.025015
0.021969
0.018487
0.015272
0.012632
0.010610
0.009139
0.008131
0.007504
0.007205
0.000155
0.001108
0.003071
0.006146
0.010421
0.015838
0.021956
0.027736
0.031640
0.032396
0.030021
0.025802
0.021194
0.017117
0.013894
0.011501
0.009806
0.008662
0.007959
0.007626
0.000165
0.001182
0.003288
0.006619
0.011319
0.017395
0.024386
0.031096
0.035627
0.036408
0.033466
0.028390
0.022986
0.018326
0.014722
0.012097
0.010261
0.009034
0.008284
0.007928
0.000167
0.001196
0.003326
0.006693
0.011443
0.017586
0.024670
0.031500
0.036139
0.036941
0.033951
0.028800
0.023330
0.018620
0.014976
0.012321
0.010462
0.009217
0.008455
0.008092
0.000162
0.001151
0.003185
0.006366
0.010783
0.016386
0.022751
0.028833
0.033004
0.033835
0.031351
0.026951
0.022178
0.017970
0.014640
0.012162
0.010400
0.009205
0.008468
0.008114
0.000149
0.001057
0.002904
0.005739
0.009575
0.014292
0.019506
0.024395
0.027778
0.028624
0.026931
0.023694
0.020017
0.016631
0.013842
0.011691
0.010116
0.009026
0.008343
0.008011
0.000132
0.000939
0.002558
0.004990
0.008182
0.011974
0.016031
0.019748
0.022351
0.023189
0.022244
0.020123
0.017535
0.015004
0.012806
0.011035
0.009689
0.008731
0.008119
0.007818
0.000115
0.000821
0.002218
0.004271
0.006893
0.009910
0.013038
0.015848
0.017853
0.018666
0.018262
0.016980
0.015249
0.013428
0.011749
0.010329
0.009206
0.008383
0.007845
0.007577
0.000100
0.000718
0.001929
0.003676
0.005857
0.008304
0.010781
0.012978
0.014583
0.015365
0.015294
0.014556
0.013409
0.012101
0.010818
0.009679
0.008744
0.008038
0.007568
0.007329
0.000089
0.000640
0.001712
0.003239
0.005113
0.007180
0.009239
0.011056
0.012417
0.013169
0.013282
0.012863
0.012078
0.011105
0.010093
0.009155
0.008359
0.007744
0.007326
0.007112
0.000081
0.000589
0.001571
0.002959
0.004645
0.006484
0.008301
0.009903
0.011126
0.011855
0.012060
0.011813
0.011230
0.010452
0.009605
0.008793
0.008087
0.007532
0.007150
0.006953
0.000077
0.000563
0.001499
0.002819
0.004416
0.006151
0.007858
0.009365
0.010526
0.011243
0.011486
0.011311
0.010817
0.010126
0.009355
0.008603
0.007942
0.007417
0.007055
0.006868


SCALARS Species_1 float 1 
LOOKUP_TABLE default 
0.000500
0.001495
0.002478
0.003439
0.004371
0.005268
0.006123
0.006928
0.007681
0.008375
0.009007
0.009575
0.010078
0.010515
0.010887
0.011194
0.011437
0.011618
0.011738
0.011798
0.000499
0.001491
0.002471
0.003430
0.004360
0.005255
0.006107
0.006911
0.007661
0.008354
0.008985
0.009552
0.010053
0.010490
0.010860
0.011167
0.011410
0.011590
0.011710
0.011770
0.000496
0.001484
0.002460
0.003414
0.004340
0.005231
0.006079
0.006880
0.007627
0.008316
0.008945
0.009509
0.010009
0.010443
0.010812
0.011117
0.011359
0.011539
0.011658
0.011718
0.000493
0.001475
0.002443
0.003391
0.004311
0.005196
0.006039
0.006834
0.007577
0.008262
0.008886
0.009447
0.009943
0.010375
0.010742
0.011045
0.011285
0.011464
0.011583
0.011642
0.000489
0.001462
0.002422
0.003361
0.004273
0.005150
0.005986
0.006775
0.007511
0.008190
0.008809
0.009365
0.009857
0.010285
0.010649
0.010949
0.011187
0.011365
0.011482
0.011541
0.000483
0.001446
0.002395
0.003324
0.004226
0.005094
0.005921
0.006701
0.007429
0.008101
0.008714
0.009264
0.009750
0.010173
0.010533
0.010830
0.011066
0.011241
0.011358
0.011416
0.000477
0.001427
0.002364
0.003281
0.004171
0.005027
0.005843
0.006613
0.007332
0.007995
0.008600
0.009142
0.009623
0.010040
0.010395
0.010688
0.010921
0.011094
0.011209
0.011266
0.000470
0.001405
0.002328
0.003231
0.004108
0.004951
0.005754
0.006512
0.007220
0.007874
0.008468
0.009003
0.009475
0.009886
0.010235
0.010524
0.010753
0.010924
0.011038
0.011094
0.000462
0.001381
0.002288
0.003176
0.004037
0.004866
0.005655
0.006400
0.007095
0.007737
0.008321
0.008846
0.009310
0.009714
0.010057
0.010341
0.010566
0.010734
0.010846
0.010901
0.000453
0.001355
0.002245
0.003116
0.003961
0.004773
0.005547
0.006278
0.006959
0.007588
0.008160
0.008675
0.009130
0.009525
0.009862
0.010140
0.010362
0.010527
0.010636
0.010691
0.000444
0.001327
0.002199
0.003052
0.003880
0.004675
0.005433
0.006148
0.006815
0.007430
0.007990
0.008493
0.008938
0.009325
0.009655
0.009928
0.010145
0.010307
0.010414
0.010468
0.000434
0.001299
0.002152
0.002987
0.003796
0.004574
0.005315
0.006014
0.006665
0.007266
0.007813
0.008304
0.008740
0.009118
0.009441
0.009708
0.009921
0.010079
0.010184
0.010237
0.000425
0.001270
0.002105
0.002921
0.003712
0.004473
0.005196
0.005878
0.006514
0.007101
0.007635
0.008115
0.008540
0.008911
0.009226
0.009488
0.009696
0.009851
0.009954
0.010005
0.000415
0.001242
0.002058
0.002856
0.003630
0.004373
0.005080
0.005746
0.006367
0.006940
0.007462
0.007931
0.008347
0.008709
0.009018
0.009273
0.009477
0.009629
0.009729
0.009780
0.000407
0.001216
0.002014
0.002795
0.003552
0.004279
0.004970
0.005622
0.006229
0.006789
0.007299
0.007758
0.008165
0.008519
0.008822
0.009072
0.009271
0.009420
0.009519
0.009568
0.000399
0.001192
0.001975
0.002740
0.003482
0.004194
0.004871
0.005509
0.006104
0.006653
0.007153
0.007603
0.008001
0.008349
0.008645
0.008891
0.009087
0.009233
0.009330
0.009378
0.000392
0.001172
0.001941
0.002693
0.003422
0.004121
0.004787
0.005414
0.005998
0.006537
0.007028
0.007470
0.007862
0.008204
0.008495
0.008737
0.008929
0.009073
0.009168
0.009216
0.000386
0.001156
0.001914
0.002656
0.003374
0.004064
0.004720
0.005338
0.005914
0.006446
0.006930
0.007366
0.007753
0.008090
0.008378
0.008616
0.008806
0.008948
0.009042
0.009089
0.000383
0.001144
0.001896
0.002630
0.003342
0.004025
0.004674
0.005286
0.005856
0.006383
0.006863
0.007294
0.007678
0.008012
0.008296
0.008533
0.008721
0.008861
0.008954
0.009001
0.000381
0.001139
0.001886
0.002617
0.003325
0.004004
0.004651
0.005259
0.005827
0.006351
0.006828
0.007258
0.007639
0.007972
0.008255
0.008490
0.008677
0.008817
0.008910
0.008956


SCALARS Species_2 float 1 
LOOKUP_TABLE default 
0.000229
0.000682
0.001119
0.001529
0.001904
0.002238
0.002524
0.002762
0.002950
0.003089
0.003183
0.003238
0.003260
0.003256
0.003234
0.003202
0.003167
0.003134
0.003110
0.003097
0.000232
0.000689
0.001130
0.001544
0.001923
0.002260
0.002550
0.002790
0.002980
0.003121
0.003217
0.003273
0.003295
0.003292
0.003270
0.003238
0.003202
0.003170
0.003145
0.003132
0.000236
0.000703
0.001153
0.001576
0.001962
0.002306
0.002602
0.002847
0.003041
0.003185
0.003283
0.003341
0.003364
0.003361
0.003339
0.003306
0.003271
0.003238
0.003213
0.003200
0.000243
0.000724
0.001187