# vtk DataFile Version 2.0
generated by CFD-lab course output (written by Tobias Neckel) 
ASCII

DATASET STRUCTURED_GRID
DIMENSIONS  21 21 1 
POINTS 441 float

0.000000 0.000000 0
0.100000 0.000000 0
0.200000 0.000000 0
0.300000 0.000000 0
0.400000 0.000000 0
0.500000 0.000000 0
0.600000 0.000000 0
0.700000 0.000000 0
0.800000 0.000000 0
0.900000 0.000000 0
1.000000 0.000000 0
1.100000 0.000000 0
1.200000 0.000000 0
1.300000 0.000000 0
1.400000 0.000000 0
1.500000 0.000000 0
1.600000 0.000000 0
1.700000 0.000000 0
1.800000 0.000000 0
1.900000 0.000000 0
2.000000 0.000000 0
0.000000 0.100000 0
0.100000 0.100000 0
0.200000 0.100000 0
0.300000 0.100000 0
0.400000 0.100000 0
0.500000 0.100000 0
0.600000 0.100000 0
0.700000 0.100000 0
0.800000 0.100000 0
0.900000 0.100000 0
1.000000 0.100000 0
1.100000 0.100000 0
1.200000 0.100000 0
1.300000 0.100000 0
1.400000 0.100000 0
1.500000 0.100000 0
1.600000 0.100000 0
1.700000 0.100000 0
1.800000 0.100000 0
1.900000 0.100000 0
2.000000 0.100000 0
0.000000 0.200000 0
0.100000 0.200000 0
0.200000 0.200000 0
0.300000 0.200000 0
0.400000 0.200000 0
0.500000 0.200000 0
0.600000 0.200000 0
0.700000 0.200000 0
0.800000 0.200000 0
0.900000 0.200000 0
1.000000 0.200000 0
1.100000 0.200000 0
1.200000 0.200000 0
1.300000 0.200000 0
1.400000 0.200000 0
1.500000 0.200000 0
1.600000 0.200000 0
1.700000 0.200000 0
1.800000 0.200000 0
1.900000 0.200000 0
2.000000 0.200000 0
0.000000 0.300000 0
0.100000 0.300000 0
0.200000 0.300000 0
0.300000 0.300000 0
0.400000 0.300000 0
0.500000 0.300000 0
0.600000 0.300000 0
0.700000 0.300000 0
0.800000 0.300000 0
0.900000 0.300000 0
1.000000 0.300000 0
1.100000 0.300000 0
1.200000 0.300000 0
1.300000 0.300000 0
1.400000 0.300000 0
1.500000 0.300000 0
1.600000 0.300000 0
1.700000 0.300000 0
1.800000 0.300000 0
1.900000 0.300000 0
2.000000 0.300000 0
0.000000 0.400000 0
0.100000 0.400000 0
0.200000 0.400000 0
0.300000 0.400000 0
0.400000 0.400000 0
0.500000 0.400000 0
0.600000 0.400000 0
0.700000 0.400000 0
0.800000 0.400000 0
0.900000 0.400000 0
1.000000 0.400000 0
1.100000 0.400000 0
1.200000 0.400000 0
1.300000 0.400000 0
1.400000 0.400000 0
1.500000 0.400000 0
1.600000 0.400000 0
1.700000 0.400000 0
1.800000 0.400000 0
1.900000 0.400000 0
2.000000 0.400000 0
0.000000 0.500000 0
0.100000 0.500000 0
0.200000 0.500000 0
0.300000 0.500000 0
0.400000 0.500000 0
0.500000 0.500000 0
0.600000 0.500000 0
0.700000 0.500000 0
0.800000 0.500000 0
0.900000 0.500000 0
1.000000 0.500000 0
1.100000 0.500000 0
1.200000 0.500000 0
1.300000 0.500000 0
1.400000 0.500000 0
1.500000 0.500000 0
1.600000 0.500000 0
1.700000 0.500000 0
1.800000 0.500000 0
1.900000 0.500000 0
2.000000 0.500000 0
0.000000 0.600000 0
0.100000 0.600000 0
0.200000 0.600000 0
0.300000 0.600000 0
0.400000 0.600000 0
0.500000 0.600000 0
0.600000 0.600000 0
0.700000 0.600000 0
0.800000 0.600000 0
0.900000 0.600000 0
1.000000 0.600000 0
1.100000 0.600000 0
1.200000 0.600000 0
1.300000 0.600000 0
1.400000 0.600000 0
1.500000 0.600000 0
1.600000 0.600000 0
1.700000 0.600000 0
1.800000 0.600000 0
1.900000 0.600000 0
2.000000 0.600000 0
0.000000 0.700000 0
0.100000 0.700000 0
0.200000 0.700000 0
0.300000 0.700000 0
0.400000 0.700000 0
0.500000 0.700000 0
0.600000 0.700000 0
0.700000 0.700000 0
0.800000 0.700000 0
0.900000 0.700000 0
1.000000 0.700000 0
1.100000 0.700000 0
1.200000 0.700000 0
1.300000 0.700000 0
1.400000 0.700000 0
1.500000 0.700000 0
1.600000 0.700000 0
1.700000 0.700000 0
1.800000 0.700000 0
1.900000 0.700000 0
2.000000 0.700000 0
0.000000 0.800000 0
0.100000 0.800000 0
0.200000 0.800000 0
0.300000 0.800000 0
0.400000 0.800000 0
0.500000 0.800000 0
0.600000 0.800000 0
0.700000 0.800000 0
0.800000 0.800000 0
0.900000 0.800000 0
1.000000 0.800000 0
1.100000 0.800000 0
1.200000 0.800000 0
1.300000 0.800000 0
1.400000 0.800000 0
1.500000 0.800000 0
1.600000 0.800000 0
1.700000 0.800000 0
1.800000 0.800000 0
1.900000 0.800000 0
2.000000 0.800000 0
0.000000 0.900000 0
0.100000 0.900000 0
0.200000 0.900000 0
0.300000 0.900000 0
0.400000 0.900000 0
0.500000 0.900000 0
0.600000 0.900000 0
0.700000 0.900000 0
0.800000 0.900000 0
0.900000 0.900000 0
1.000000 0.900000 0
1.100000 0.900000 0
1.200000 0.900000 0
1.300000 0.900000 0
1.400000 0.900000 0
1.500000 0.900000 0
1.600000 0.900000 0
1.700000 0.900000 0
1.800000 0.900000 0
1.900000 0.900000 0
2.000000 0.900000 0
0.000000 1.000000 0
0.100000 1.000000 0
0.200000 1.000000 0
0.300000 1.000000 0
0.400000 1.000000 0
0.500000 1.000000 0
0.600000 1.000000 0
0.700000 1.000000 0
0.800000 1.000000 0
0.900000 1.000000 0
1.000000 1.000000 0
1.100000 1.000000 0
1.200000 1.000000 0
1.300000 1.000000 0
1.400000 1.000000 0
1.500000 1.000000 0
1.600000 1.000000 0
1.700000 1.000000 0
1.800000 1.000000 0
1.900000 1.000000 0
2.000000 1.000000 0
0.000000 1.100000 0
0.100000 1.100000 0
0.200000 1.100000 0
0.300000 1.100000 0
0.400000 1.100000 0
0.500000 1.100000 0
0.600000 1.100000 0
0.700000 1.100000 0
0.800000 1.100000 0
0.900000 1.100000 0
1.000000 1.100000 0
1.100000 1.100000 0
1.200000 1.100000 0
1.300000 1.100000 0
1.400000 1.100000 0
1.500000 1.100000 0
1.600000 1.100000 0
1.700000 1.100000 0
1.800000 1.100000 0
1.900000 1.100000 0
2.000000 1.100000 0
0.000000 1.200000 0
0.100000 1.200000 0
0.200000 1.200000 0
0.300000 1.200000 0
0.400000 1.200000 0
0.500000 1.200000 0
0.600000 1.200000 0
0.700000 1.200000 0
0.800000 1.200000 0
0.900000 1.200000 0
1.000000 1.200000 0
1.100000 1.200000 0
1.200000 1.200000 0
1.300000 1.200000 0
1.400000 1.200000 0
1.500000 1.200000 0
1.600000 1.200000 0
1.700000 1.200000 0
1.800000 1.200000 0
1.900000 1.200000 0
2.000000 1.200000 0
0.000000 1.300000 0
0.100000 1.300000 0
0.200000 1.300000 0
0.300000 1.300000 0
0.400000 1.300000 0
0.500000 1.300000 0
0.600000 1.300000 0
0.700000 1.300000 0
0.800000 1.300000 0
0.900000 1.300000 0
1.000000 1.300000 0
1.100000 1.300000 0
1.200000 1.300000 0
1.300000 1.300000 0
1.400000 1.300000 0
1.500000 1.300000 0
1.600000 1.300000 0
1.700000 1.300000 0
1.800000 1.300000 0
1.900000 1.300000 0
2.000000 1.300000 0
0.000000 1.400000 0
0.100000 1.400000 0
0.200000 1.400000 0
0.300000 1.400000 0
0.400000 1.400000 0
0.500000 1.400000 0
0.600000 1.400000 0
0.700000 1.400000 0
0.800000 1.400000 0
0.900000 1.400000 0
1.000000 1.400000 0
1.100000 1.400000 0
1.200000 1.400000 0
1.300000 1.400000 0
1.400000 1.400000 0
1.500000 1.400000 0
1.600000 1.400000 0
1.700000 1.400000 0
1.800000 1.400000 0
1.900000 1.400000 0
2.000000 1.400000 0
0.000000 1.500000 0
0.100000 1.500000 0
0.200000 1.500000 0
0.300000 1.500000 0
0.400000 1.500000 0
0.500000 1.500000 0
0.600000 1.500000 0
0.700000 1.500000 0
0.800000 1.500000 0
0.900000 1.500000 0
1.000000 1.500000 0
1.100000 1.500000 0
1.200000 1.500000 0
1.300000 1.500000 0
1.400000 1.500000 0
1.500000 1.500000 0
1.600000 1.500000 0
1.700000 1.500000 0
1.800000 1.500000 0
1.900000 1.500000 0
2.000000 1.500000 0
0.000000 1.600000 0
0.100000 1.600000 0
0.200000 1.600000 0
0.300000 1.600000 0
0.400000 1.600000 0
0.500000 1.600000 0
0.600000 1.600000 0
0.700000 1.600000 0
0.800000 1.600000 0
0.900000 1.600000 0
1.000000 1.600000 0
1.100000 1.600000 0
1.200000 1.600000 0
1.300000 1.600000 0
1.400000 1.600000 0
1.500000 1.600000 0
1.600000 1.600000 0
1.700000 1.600000 0
1.800000 1.600000 0
1.900000 1.600000 0
2.000000 1.600000 0
0.000000 1.700000 0
0.100000 1.700000 0
0.200000 1.700000 0
0.300000 1.700000 0
0.400000 1.700000 0
0.500000 1.700000 0
0.600000 1.700000 0
0.700000 1.700000 0
0.800000 1.700000 0
0.900000 1.700000 0
1.000000 1.700000 0
1.100000 1.700000 0
1.200000 1.700000 0
1.300000 1.700000 0
1.400000 1.700000 0
1.500000 1.700000 0
1.600000 1.700000 0
1.700000 1.700000 0
1.800000 1.700000 0
1.900000 1.700000 0
2.000000 1.700000 0
0.000000 1.800000 0
0.100000 1.800000 0
0.200000 1.800000 0
0.300000 1.800000 0
0.400000 1.800000 0
0.500000 1.800000 0
0.600000 1.800000 0
0.700000 1.800000 0
0.800000 1.800000 0
0.900000 1.800000 0
1.000000 1.800000 0
1.100000 1.800000 0
1.200000 1.800000 0
1.300000 1.800000 0
1.400000 1.800000 0
1.500000 1.800000 0
1.600000 1.800000 0
1.700000 1.800000 0
1.800000 1.800000 0
1.900000 1.800000 0
2.000000 1.800000 0
0.000000 1.900000 0
0.100000 1.900000 0
0.200000 1.900000 0
0.300000 1.900000 0
0.400000 1.900000 0
0.500000 1.900000 0
0.600000 1.900000 0
0.700000 1.900000 0
0.800000 1.900000 0
0.900000 1.900000 0
1.000000 1.900000 0
1.100000 1.900000 0
1.200000 1.900000 0
1.300000 1.900000 0
1.400000 1.900000 0
1.500000 1.900000 0
1.600000 1.900000 0
1.700000 1.900000 0
1.800000 1.900000 0
1.900000 1.900000 0
2.000000 1.900000 0
0.000000 2.000000 0
0.100000 2.000000 0
0.200000 2.000000 0
0.300000 2.000000 0
0.400000 2.000000 0
0.500000 2.000000 0
0.600000 2.000000 0
0.700000 2.000000 0
0.800000 2.000000 0
0.900000 2.000000 0
1.000000 2.000000 0
1.100000 2.000000 0
1.200000 2.000000 0
1.300000 2.000000 0
1.400000 2.000000 0
1.500000 2.000000 0
1.600000 2.000000 0
1.700000 2.000000 0
1.800000 2.000000 0
1.900000 2.000000 0
2.000000 2.000000 0
POINT_DATA 441 

VECTORS velocity float
0.000000 0.000000 0
-0.000002 0.000000 0
0.000006 0.000000 0
0.000008 0.000000 0
0.000004 0.000000 0
-0.000001 0.000000 0
-0.000005 0.000000 0
-0.000005 0.000000 0
-0.000003 0.000000 0
-0.000000 0.000000 0
0.000002 0.000000 0
0.000002 0.000000 0
0.000002 0.000000 0
0.000001 0.000000 0
-0.000000 0.000000 0
-0.000001 0.000000 0
-0.000001 0.000000 0
-0.000000 0.000000 0
-0.000000 0.000000 0
-0.000000 0.000000 0
-0.000000 0.000000 0
0.000000 0.000003 0
0.000017 -0.000005 0
0.000032 -0.000006 0
0.000040 -0.000010 0
0.000044 -0.000012 0
0.000042 -0.000008 0
0.000036 0.000002 0
0.000023 0.000014 0
0.000005 0.000023 0
-0.000017 0.000028 0
-0.000042 0.000027 0
-0.000065 0.000022 0
-0.000086 0.000016 0
-0.000101 0.000011 0
-0.000111 0.000006 0
-0.000117 0.000003 0
-0.000119 0.000001 0
-0.000120 -0.000000 0
-0.000119 -0.000001 0
-0.000118 -0.000001 0
-0.000118 -0.000000 0
0.000000 0.000008 0
0.000015 -0.000026 0
0.000028 -0.000030 0
0.000041 -0.000025 0
0.000049 -0.000011 0
0.000052 0.000007 0
0.000046 0.000025 0
0.000030 0.000039 0
0.000007 0.000048 0
-0.000021 0.000050 0
-0.000049 0.000047 0
-0.000075 0.000041 0
-0.000096 0.000032 0
-0.000112 0.000023 0
-0.000122 0.000015 0
-0.000127 0.000008 0
-0.000129 0.000003 0
-0.000129 0.000000 0
-0.000128 -0.000001 0
-0.000128 -0.000001 0
-0.000127 -0.000001 0
0.000000 -0.000001 0
0.000012 -0.000047 0
0.000031 -0.000043 0
0.000048 -0.000027 0
0.000060 -0.000006 0
0.000062 0.000015 0
0.000054 0.000036 0
0.000036 0.000054 0
0.000009 0.000067 0
-0.000021 0.000074 0
-0.000052 0.000073 0
-0.000080 0.000066 0
-0.000102 0.000053 0
-0.000117 0.000038 0
-0.000126 0.000024 0
-0.000130 0.000012 0
-0.000130 0.000004 0
-0.000129 -0.000001 0
-0.000127 -0.000002 0
-0.000126 -0.000002 0
-0.000125 -0.000001 0
0.000000 -0.000005 0
0.000016 -0.000063 0
0.000039 -0.000054 0
0.000058 -0.000036 0
0.000070 -0.000014 0
0.000072 0.000012 0
0.000064 0.000042 0
0.000045 0.000071 0
0.000016 0.000095 0
-0.000019 0.000108 0
-0.000054 0.000108 0
-0.000086 0.000094 0
-0.000109 0.000073 0
-0.000124 0.000050 0
-0.000131 0.000029 0
-0.000132 0.000013 0
-0.000130 0.000002 0
-0.000127 -0.000003 0
-0.000124 -0.000005 0
-0.000122 -0.000003 0
-0.000122 -0.000001 0
0.000000 0.000000 0
0.000021 -0.000080 0
0.000044 -0.000075 0
0.000064 -0.000057 0
0.000079 -0.000028 0
0.000085 0.000010 0
0.000080 0.000055 0
0.000060 0.000099 0
0.000027 0.000133 0
-0.000015 0.000150 0
-0.000058 0.000145 0
-0.000095 0.000124 0
-0.000120 0.000092 0
-0.000133 0.000059 0
-0.000136 0.000031 0
-0.000134 0.000010 0
-0.000129 -0.000002 0
-0.000123 -0.000008 0
-0.000118 -0.000008 0
-0.000116 -0.000004 0
-0.000115 -0.000002 0
0.000000 0.000002 0
0.000023 -0.000105 0
0.000047 -0.000102 0
0.000070 -0.000078 0
0.000089 -0.000040 0
0.000100 0.000011 0
0.000097 0.000071 0
0.000077 0.000130 0
0.000038 0.000175 0
-0.000012 0.000196 0
-0.000063 0.000187 0
-0.000104 0.000154 0
-0.000129 0.000110 0
-0.000139 0.000066 0
-0.000139 0.000030 0
-0.000132 0.000005 0
-0.000124 -0.000009 0
-0.000116 -0.000014 0
-0.000109 -0.000012 0
-0.000106 -0.000006 0
-0.000105 -0.000002 0
0.000000 -0.000001 0
0.000022 -0.000132 0
0.000048 -0.000128 0
0.000074 -0.000098 0
0.000096 -0.000053 0
0.000110 0.000008 0
0.000109 0.000083 0
0.000088 0.000159 0
0.000046 0.000220 0
-0.000010 0.000248 0
-0.000066 0.000234 0
-0.000109 0.000188 0
-0.000133 0.000127 0
-0.000139 0.000069 0
-0.000134 0.000025 0
-0.000124 -0.000004 0
-0.000113 -0.000018 0
-0.000103 -0.000022 0
-0.000095 -0.000017 0
-0.000092 -0.000008 0
-0.000091 -0.000002 0
0.000000 -0.000002 0
0.000021 -0.000155 0
0.000045 -0.000152 0
0.000070 -0.000121 0
0.000092 -0.000072 0
0.000107 -0.000001 0
0.000109 0.000090 0
0.000091 0.000189 0
0.000051 0.000270 0
-0.000006 0.000306 0
-0.000063 0.000286 0
-0.000104 0.000222 0
-0.000125 0.000141 0
-0.000127 0.000068 0
-0.000119 0.000015 0
-0.000106 -0.000016 0
-0.000094 -0.000030 0
-0.000084 -0.000031 0
-0.000076 -0.000023 0
-0.000072 -0.000010 0
-0.000072 -0.000002 0
0.000000 -0.000000 0
0.000017 -0.000175 0
0.000036 -0.000175 0
0.000055 -0.000145 0
0.000073 -0.000092 0
0.000087 -0.000012 0
0.000091 0.000096 0
0.000079 0.000217 0
0.000046 0.000318 0
-0.000002 0.000362 0
-0.000050 0.000334 0
-0.000084 0.000251 0
-0.000099 0.000150 0
-0.000098 0.000064 0
-0.000089 0.000004 0
-0.000077 -0.000029 0
-0.000066 -0.000042 0
-0.000057 -0.000040 0
-0.000051 -0.000029 0
-0.000048 -0.000012 0
-0.000048 -0.000003 0
0.000000 0.000000 0
0.000010 -0.000190 0
0.000020 -0.000192 0
0.000030 -0.000161 0
0.000041 -0.000106 0
0.000050 -0.000019 0
0.000054 0.000100 0
0.000048 0.000236 0
0.000029 0.000352 0
0.000001 0.000403 0
-0.000026 0.000368 0
-0.000045 0.000270 0
-0.000053 0.000155 0
-0.000051 0.000058 0
-0.000045 -0.000006 0
-0.000037 -0.000039 0
-0.000031 -0.000050 0
-0.000025 -0.000046 0
-0.000022 -0.000033 0
-0.000020 -0.000013 0
-0.000020 -0.000003 0
0.000000 -0.000000 0
0.000000 -0.000196 0
0.000000 -0.000198 0
0.000000 -0.000167 0
0.000001 -0.000110 0
0.000001 -0.000022 0
0.000002 0.000100 0
0.000003 0.000242 0
0.000004 0.000364 0
0.000005 0.000417 0
0.000006 0.000380 0
0.000007 0.000276 0
0.000008 0.000156 0
0.000008 0.000056 0
0.000009 -0.000009 0
0.000009 -0.000043 0
0.000010 -0.000054 0
0.000010 -0.000049 0
0.000011 -0.000034 0
0.000011 -0.000014 0
0.000011 -0.000003 0
0.000000 -0.000001 0
-0.000008 -0.000191 0
-0.000019 -0.000192 0
-0.000029 -0.000161 0
-0.000040 -0.000105 0
-0.000048 -0.000020 0
-0.000050 0.000098 0
-0.000042 0.000234 0
-0.000021 0.000349 0
0.000008 0.000400 0
0.000038 0.000366 0
0.000059 0.000268 0
0.000068 0.000153 0
0.000067 0.000057 0
0.000062 -0.000007 0
0.000056 -0.000040 0
0.000051 -0.000051 0
0.000046 -0.000047 0
0.000044 -0.000033 0
0.000042 -0.000013 0
0.000042 -0.000003 0
0.000000 -0.000000 0
-0.000015 -0.000177 0
-0.000035 -0.000176 0
-0.000054 -0.000146 0
-0.000072 -0.000093 0
-0.000085 -0.000013 0
-0.000088 0.000094 0
-0.000074 0.000214 0
-0.000038 0.000314 0
0.000011 0.000358 0
0.000061 0.000329 0
0.000097 0.000247 0
0.000113 0.000147 0
0.000114 0.000061 0
0.000107 0.000002 0
0.000097 -0.000031 0
0.000087 -0.000044 0
0.000080 -0.000042 0
0.000074 -0.000030 0
0.000071 -0.000012 0
0.000071 -0.000002 0
0.000000 0.000000 0
-0.000021 -0.000156 0
-0.000046 -0.000154 0
-0.000070 -0.000124 0
-0.000091 -0.000075 0
-0.000105 -0.000004 0
-0.000106 0.000087 0
-0.000087 0.000185 0
-0.000045 0.000265 0
0.000014 0.000301 0
0.000073 0.000280 0
0.000117 0.000216 0
0.000139 0.000136 0
0.000144 0.000063 0
0.000138 0.000011 0
0.000127 -0.000020 0
0.000117 -0.000034 0
0.000107 -0.000034 0
0.000101 -0.000025 0
0.000097 -0.000011 0
0.000097 -0.000002 0
0.000000 -0.000000 0
-0.000024 -0.000131 0
-0.000051 -0.000128 0
-0.000077 -0.000101 0
-0.000098 -0.000057 0
-0.000110 0.000003 0
-0.000108 0.000076 0
-0.000086 0.000152 0
-0.000042 0.000213 0
0.000016 0.000240 0
0.000075 0.000226 0
0.000121 0.000180 0
0.000148 0.000120 0
0.000158 0.000062 0
0.000156 0.000018 0
0.000148 -0.000010 0
0.000138 -0.000024 0
0.000129 -0.000026 0
0.000122 -0.000020 0
0.000119 -0.000009 0
0.000118 -0.000002 0
0.000000 -0.000000 0
-0.000025 -0.000105 0
-0.000053 -0.000101 0
-0.000078 -0.000077 0
-0.000097 -0.000041 0
-0.000107 0.000007 0
-0.000101 0.000063 0
-0.000078 0.000119 0
-0.000036 0.000163 0
0.000017 0.000183 0
0.000072 0.000175 0
0.000117 0.000143 0
0.000147 0.000099 0
0.000161 0.000056 0
0.000163 0.000021 0
0.000159 -0.000003 0
0.000152 -0.000015 0
0.000145 -0.000019 0
0.000139 -0.000015 0
0.000136 -0.000007 0
0.000135 -0.000002 0
0.000000 -0.000000 0
-0.000025 -0.000078 0
-0.000053 -0.000075 0
-0.000077 -0.000056 0
-0.000094 -0.000029 0
-0.000100 0.000007 0
-0.000093 0.000048 0
-0.000069 0.000087 0
-0.000030 0.000118 0
0.000018 0.000132 0
0.000068 0.000127 0
0.000111 0.000106 0
0.000142 0.000076 0
0.000160 0.000045 0
0.000167 0.000020 0
0.000166 0.000001 0
0.000162 -0.000009 0
0.000156 -0.000013 0
0.000151 -0.000011 0
0.000149 -0.000005 0
0.000148 -0.000001 0
0.000000 0.000000 0
-0.000026 -0.000052 0
-0.000053 -0.000049 0
-0.000076 -0.000037 0
-0.000092 -0.000018 0
-0.000097 0.000005 0
-0.000088 0.000032 0
-0.000064 0.000057 0
-0.000027 0.000076 0
0.000018 0.000085 0
0.000065 0.000082 0
0.000106 0.000069 0
0.000138 0.000051 0
0.000158 0.000031 0
0.000168 0.000014 0
0.000171 0.000002 0
0.000168 -0.000005 0
0.000164 -0.000008 0
0.000160 -0.000007 0
0.000157 -0.000003 0
0.000157 -0.000001 0
0.000000 0.000000 0
-0.000025 -0.000025 0
-0.000052 -0.000024 0
-0.000074 -0.000018 0
-0.000088 -0.000009 0
-0.000092 0.000003 0
-0.000083 0.000015 0
-0.000061 0.000027 0
-0.000027 0.000035 0
0.000015 0.000040 0
0.000058 0.000039 0
0.000097 0.000033 0
0.000127 0.000024 0
0.000148 0.000015 0
0.000159 0.000007 0
0.000162 0.000001 0
0.000161 -0.000003 0
0.000157 -0.000004 0
0.000153 -0.000004 0
0.000150 -0.000002 0
0.000149 -0.000000 0
0.000000 0.000000 0
-0.000000 0.000000 0
-0.000000 0.000000 0
-0.000000 0.000000 0
-0.000000 0.000000 0
-0.000000 0.000000 0
-0.000000 0.000000 0
-0.000000 0.000000 0
-0.000000 0.000000 0
-0.000000 0.000000 0
0.000000 0.000000 0
0.000000 0.000000 0
0.000000 0.000000 0
0.000000 0.000000 0
0.000000 0.000000 0
0.000000 0.000000 0
0.000000 0.000000 0
0.000000 0.000000 0
0.000000 0.000000 0
0.000000 0.000000 0
0.000000 0.000000 0

CELL_DATA 400 
SCALARS pressure float 1 
LOOKUP_TABLE default 
0.242639
0.242649
0.242623
0.242590
0.242573
0.242578
0.242598
0.242619
0.242632
0.242634
0.242628
0.242619
0.242612
0.242610
0.242610
0.242613
0.242615
0.242617
0.242618
0.242619
0.219626
0.219603
0.219594
0.219601
0.219616
0.219628
0.219632
0.219627
0.219619
0.219611
0.219607
0.219607
0.219610
0.219613
0.219616
0.219617
0.219618
0.219618
0.219619
0.219619
0.196594
0.196599
0.196621
0.196638
0.196641
0.196631
0.196615
0.196602
0.196598
0.196601
0.196607
0.196614
0.196618
0.196619
0.196619
0.196618
0.196618
0.196618
0.196618
0.196619
0.173600
0.173622
0.173635
0.173634
0.173621
0.173607
0.173598
0.173598
0.173604
0.173612
0.173618
0.173620
0.173620
0.173618
0.173617
0.173616
0.173617
0.173618
0.173618
0.173619
0.150619
0.150623
0.150619
0.150613
0.150608
0.150607
0.150610
0.150614
0.150617
0.150618
0.150617
0.150616
0.150615
0.150615
0.150616
0.150616
0.150617
0.150618
0.150619
0.150620
0.127619
0.127611
0.127609
0.127613
0.127619
0.127622
0.127622
0.127619
0.127615
0.127612
0.127611
0.127612
0.127614
0.127616
0.127617
0.127618
0.127619
0.127619
0.127620
0.127620
0.104611
0.104609
0.104616
0.104623
0.104627
0.104625
0.104619
0.104613
0.104610
0.104610
0.104612
0.104614
0.104617
0.104618
0.104619
0.104619
0.104619
0.104619
0.104620
0.104620
0.081614
0.081617
0.081621
0.081623
0.081622
0.081618
0.081614
0.081612
0.081612
0.081614
0.081616
0.081617
0.081618
0.081618
0.081619
0.081619
0.081619
0.081620
0.081620
0.081621
0.058621
0.058620
0.058618
0.058618
0.058617
0.058618
0.058618
0.058618
0.058618
0.058618
0.058617
0.058617
0.058618
0.058618
0.058619
0.058620
0.058620
0.058620
0.058621
0.058621
0.035623
0.035618
0.035616
0.035618
0.035621
0.035623
0.035623
0.035622
0.035620
0.035618
0.035618
0.035618
0.035619
0.035620
0.035620
0.035621
0.035621
0.035621
0.035621
0.035622
0.012622
0.012619
0.012620
0.012622
0.012624
0.012625
0.012624
0.012623
0.012621
0.012620
0.012620
0.012621
0.012621
0.012622
0.012622
0.012622
0.012622
0.012622
0.012622
0.012622
-0.010377
-0.010377
-0.010377
-0.010376
-0.010376
-0.010376
-0.010376
-0.010376
-0.010376
-0.010376
-0.010376
-0.010376
-0.010376
-0.010377
-0.010377
-0.010377
-0.010377
-0.010377
-0.010377
-0.010377
-0.033374
-0.033375
-0.033376
-0.033376
-0.033376
-0.033375
-0.033373
-0.033372
-0.033372
-0.033373
-0.033373
-0.033374
-0.033375
-0.033375
-0.033375
-0.033376
-0.033376
-0.033376
-0.033377
-0.033377
-0.056372
-0.056374
-0.056375
-0.056375
-0.056374
-0.056372
-0.056371
-0.056370
-0.056370
-0.056371
-0.056372
-0.056373
-0.056373
-0.056374
-0.056374
-0.056374
-0.056375
-0.056375
-0.056376
-0.056376
-0.079372
-0.079373
-0.079373
-0.079373
-0.079372
-0.079371
-0.079370
-0.079369
-0.079369
-0.079370
-0.079370
-0.079371
-0.079372
-0.079372
-0.079373
-0.079373
-0.079374
-0.079375
-0.079375
-0.079376
-0.102371
-0.102371
-0.102371
-0.102372
-0.102371
-0.102370
-0.102369
-0.102369
-0.102368
-0.102368
-0.102369
-0.102369
-0.102370
-0.102371
-0.102372
-0.102373
-0.102373
-0.102374
-0.102375
-0.102375
-0.125370
-0.125370
-0.125371
-0.125371
-0.125371
-0.125370
-0.125369
-0.125368
-0.125367
-0.125367
-0.125368
-0.125369
-0.125369
-0.125370
-0.125371
-0.125372
-0.125373
-0.125373
-0.125374
-0.125375
-0.148370
-0.148370
-0.148370
-0.148370
-0.148370
-0.148369
-0.148368
-0.148367
-0.148367
-0.148367
-0.148367
-0.148368
-0.148369
-0.148369
-0.148370
-0.148371
-0.148372
-0.148373
-0.148374
-0.148375
-0.171370
-0.171369
-0.171369
-0.171369
-0.171369
-0.171368
-0.171367
-0.171367
-0.171366
-0.171366
-0.171366
-0.171367
-0.171368
-0.171369
-0.171370
-0.171371
-0.171371
-0.171372
-0.171373
-0.171374
-0.194370
-0.194369
-0.194369
-0.194369
-0.194368
-0.194368
-0.194367
-0.194366
-0.194365
-0.194365
-0.194366
-0.194366
-0.194367
-0.194368
-0.194369
-0.194370
-0.194371
-0.194372
-0.194373
-0.194374

SCALARS temperature float 1 
LOOKUP_TABLE default 
0.000019
0.000153
0.000412
0.000776
0.001216
0.001690
0.002148
0.002540
0.002821
0.002964
0.002964
0.002838
0.002617
0.002342
0.002051
0.001775
0.001538
0.001353
0.001227
0.001165
0.000020
0.000167
0.000450
0.000850
0.001335
0.001858
0.002365
0.002797
0.003105
0.003257
0.003248
0.003098
0.002844
0.002533
0.002207
0.001901
0.001641
0.001439
0.001303
0.001234
0.000024
0.000196
0.000532
0.001008
0.001587
0.002218
0.002831
0.003352
0.003719
0.003888
0.003855
0.003647
0.003318
0.002925
0.002523
0.002154
0.001844
0.001606
0.001447
0.001368
0.000030
0.000245
0.000665
0.001267
0.002008
0.002823
0.003622
0.004302
0.004770
0.004964
0.004880
0.004563
0.004094
0.003556
0.003023
0.002545
0.002153
0.001858
0.001663
0.001566
0.000039
0.000316
0.000861
0.001653
0.002644
0.003752
0.004853
0.005794
0.006426
0.006652
0.006468
0.005956
0.005246
0.004470
0.003729
0.003086
0.002572
0.002193
0.001946
0.001826
0.000051
0.000411
0.001128
0.002188
0.003543
0.005093
0.006664
0.008018
0.008911
0.009174
0.008805
0.007957
0.006855
0.005706
0.004655
0.003776
0.003094
0.002603
0.002290
0.002138
0.000066
0.000531
0.001467
0.002879
0.004732
0.006911
0.009182
0.011175
0.012471
0.012771
0.012078
0.010680
0.008968
0.007271
0.005788
0.004595
0.003697
0.003069
0.002674
0.002485
0.000084
0.000666
0.001858
0.003694
0.006173
0.009188
0.012439
0.015364
0.017257
0.017589
0.016370
0.014131
0.011539
0.009099
0.007062
0.005486
0.004338
0.003554
0.003069
0.002840
0.000101
0.000803
0.002256
0.004543
0.007721
0.011724
0.016198
0.020345
0.023040
0.023392
0.021428
0.018052
0.014337
0.011006
0.008341
0.006354
0.004949
0.004010
0.003438
0.003169
0.000115
0.000917
0.002593
0.005275
0.009092
0.014049
0.019768
0.025217
0.028789
0.029153
0.026352
0.021743
0.016871
0.012670
0.009425
0.007076
0.005451
0.004382
0.003738
0.003437
0.000124
0.000984
0.002795
0.005715
0.009929
0.015498
0.022048
0.028398
0.032587
0.032962
0.029575
0.024112
0.018464
0.013702
0.010096
0.007527
0.005769
0.004622
0.003934
0.003613
0.000125
0.000992
0.002815
0.005751
0.009981
0.015562
0.022122
0.028487
0.032696
0.033085
0.029707
0.024250
0.018603
0.013834
0.010215
0.007630
0.005859
0.004701
0.004006
0.003680
0.000119
0.000941
0.002656
0.005387
0.009257
0.014261
0.020022
0.025521
0.029152
0.029558
0.026777
0.022174
0.017293
0.013065
0.009780
0.007387
0.005721
0.004618
0.003951
0.003637
0.000107
0.000844
0.002366
0.004743
0.008023
0.012125
0.016693
0.020936
0.023725
0.024139
0.022196
0.018811
0.015064
0.011674
0.008936
0.006872
0.005397
0.004401
0.003791
0.003501
0.000092
0.000727
0.002020
0.003994
0.006634
0.009816
0.013228
0.016301
0.018318
0.018724
0.017522
0.015251
0.012590
0.010052
0.007900
0.006210
0.004962
0.004098
0.003559
0.003300
0.000077
0.000612
0.001685
0.003287
0.005367
0.007787
0.010291
0.012489
0.013940
0.014324
0.013638
0.012180
0.010355
0.008513
0.006871
0.005525
0.004495
0.003763
0.003297
0.003071
0.000064
0.000514
0.001404
0.002707
0.004356
0.006221
0.008097
0.009714
0.010796
0.011154
0.010781
0.009841
0.008581
0.007238
0.005981
0.004909
0.004062
0.003444
0.003044
0.002848
0.000055
0.000439
0.001194
0.002283
0.003634
0.005130
0.006607
0.007868
0.008726
0.009059
0.008859
0.008223
0.007311
0.006291
0.005298
0.004421
0.003709
0.003179
0.002830
0.002657
0.000049
0.000391
0.001058
0.002011
0.003180
0.004458
0.005704
0.006764
0.007497
0.007811
0.007699
0.007226
0.006509
0.005677
0.004843
0.004089
0.003464
0.002991
0.002677
0.002520
0.000046
0.000367
0.000991
0.001880
0.002963
0.004139
0.005282
0.006252
0.006928
0.007233
0.007157
0.006754
0.006123
0.005376
0.004616
0.003920
0.003338
0.002894
0.002597
0.002449


SCALARS Species_1 float 1 
LOOKUP_TABLE default 
0.000594
0.001777
0.002947
0.004094
0.005209
0.006279
0.007293
0.008240
0.009107
0.009887
0.010571
0.011158
0.011646
0.012042
0.012351
0.012585
0.012754
0.012868
0.012939
0.012973
0.000594
0.001778
0.002949
0.004097
0.005211
0.006282
0.007296
0.008243
0.009111
0.009891
0.010576
0.011163
0.011652
0.012048
0.012358
0.012592
0.012762
0.012877
0.012948
0.012982
0.000595
0.001780
0.002952
0.004101
0.005216
0.006287
0.007303
0.008250
0.009118
0.009899
0.010584
0.011172
0.011662
0.012059
0.012370
0.012605
0.012775
0.012891
0.012962
0.012996
0.000595
0.001781
0.002954
0.004103
0.005219
0.006290
0.007306
0.008253
0.009122
0.009903
0.010589
0.011177
0.011667
0.012064
0.012376
0.012611
0.012782
0.012898
0.012970
0.013004
0.000595
0.001780
0.002951
0.004099
0.005214
0.006284
0.007298
0.008245
0.009112
0.009892
0.010577
0.011165
0.011655
0.012052
0.012363
0.012599
0.012769
0.012886
0.012958
0.012992
0.000593
0.001773
0.002940
0.004084
0.005195
0.006261
0.007271
0.008214
0.009078
0.009855
0.010537
0.011122
0.011611
0.012006
0.012317
0.012552
0.012722
0.012839
0.012911
0.012945
0.000588
0.001760
0.002918
0.004054
0.005156
0.006213
0.007216
0.008151
0.009009
0.009780
0.010457
0.011037
0.011522
0.011915
0.012223
0.012457
0.012626
0.012742
0.012814
0.012848
0.000581
0.001739
0.002882
0.004003
0.005091
0.006136
0.007126
0.008049
0.008896
0.009657
0.010326
0.010899
0.011377
0.011765
0.012070
0.012301
0.012469
0.012584
0.012655
0.012689
0.000571
0.001707
0.002830
0.003931
0.004999
0.006024
0.006996
0.007902
0.008734
0.009481
0.010137
0.010700
0.011169
0.011550
0.011850
0.012077
0.012242
0.012355
0.012425
0.012459
0.000557
0.001666
0.002761
0.003835
0.004877
0.005877
0.006825
0.007709
0.008520
0.009248
0.009888
0.010437
0.010895
0.011267
0.011560
0.011782
0.011944
0.012054
0.012123
0.012156
0.000540
0.001614
0.002676
0.003717
0.004727
0.005697
0.006615
0.007472
0.008257
0.008963
0.009583
0.010115
0.010559
0.010920
0.011204
0.011420
0.011577
0.011685
0.011752
0.011784
0.000520
0.001555
0.002578
0.003580
0.004553
0.005487
0.006372
0.007197
0.007953
0.008632
0.009229
0.009742
0.010170
0.010518
0.010792
0.011001
0.011152
0.011257
0.011322
0.011353
0.000498
0.001489
0.002469
0.003430
0.004362
0.005256
0.006103
0.006894
0.007618
0.008269
0.008841
0.009332
0.009743
0.010077
0.010340
0.010540
0.010686
0.010787
0.010849
0.010879
0.000475
0.001421
0.002356
0.003272
0.004161
0.005014
0.005823
0.006576
0.007267
0.007889
0.008435
0.008904
0.009296
0.009615
0.009867
0.010059
0.010199
0.010295
0.010355
0.010384
0.000452
0.001353
0.002243
0.003115
0.003961
0.004774
0.005543
0.006261
0.006919
0.007511
0.008031
0.008478
0.008852
0.009157
0.009398
0.009581
0.009715
0.009808
0.009865
0.009892
0.000430
0.001288
0.002136
0.002967
0.003773
0.004547
0.005280
0.005964
0.006591
0.007155
0.007652
0.008078
0.008436
0.008727
0.008957
0.009132
0.009261
0.009349
0.009404
0.009431
0.000412
0.001231
0.002042
0.002836
0.003607
0.004347
0.005048
0.005702
0.006302
0.006842
0.007318
0.007726
0.008069
0.008348
0.008569
0.008738
0.008861
0.008946
0.008999
0.009024
0.000396
0.001186
0.001966
0.002731
0.003473
0.004186
0.004861
0.005491
0.006070
0.006590
0.007048
0.007443
0.007773
0.008043
0.008256
0.008419
0.008538
0.008621
0.008672
0.008696
0.000385
0.001153
0.001913
0.002657
0.003380
0.004073
0.004730
0.005344
0.005906
0.006413
0.006860
0.007244
0.007566
0.007829
0.008037
0.008196
0.008313
0.008393
0.008443
0.008467
0.000380
0.001137
0.001885
0.002619
0.003331
0.004015
0.004663
0.005267
0.005822
0.006322
0.006762
0.007141
0.007460
0.007719
0.007924
0.008081
0.008196
0.008276
0.008325
0.008349


SCALARS Species_2 float 1 
LOOKUP_TABLE default 
0.000292
0.000864
0.001404
0.001893
0.002314
0.002657
0.002914
0.003083
0.003167
0.003173
0.003111
0.002995
0.002840
0.002661
0.002473
0.002292
0.002131
0.002000
0.001907
0.001860
0.000299
0.000886
0.001440
0.001941
0.002374
0.002725
0.002989
0.003163
0.003250
0.003256
0.003193
0.003075
0.002916
0.002733
0.002541
0.002355
0.002190
0.002056
0.001961
0.001913
0.000314
0.000931
0.001512
0.002038
0.002491
0.002860
0.003137
0.003319
0.003411
0.003418
0.003352
0.003228
0.003062
0.002870
0.002669
0.002475
0.002302
0.002161
0.002062
0.002012
0.000336
0.000994