# vtk DataFile Version 2.0
generated by CFD-lab course output (written by Tobias Neckel) 
ASCII

DATASET STRUCTURED_GRID
DIMENSIONS  21 21 1 
POINTS 441 float

0.000000 0.000000 0
0.100000 0.000000 0
0.200000 0.000000 0
0.300000 0.000000 0
0.400000 0.000000 0
0.500000 0.000000 0
0.600000 0.000000 0
0.700000 0.000000 0
0.800000 0.000000 0
0.900000 0.000000 0
1.000000 0.000000 0
1.100000 0.000000 0
1.200000 0.000000 0
1.300000 0.000000 0
1.400000 0.000000 0
1.500000 0.000000 0
1.600000 0.000000 0
1.700000 0.000000 0
1.800000 0.000000 0
1.900000 0.000000 0
2.000000 0.000000 0
0.000000 0.100000 0
0.100000 0.100000 0
0.200000 0.100000 0
0.300000 0.100000 0
0.400000 0.100000 0
0.500000 0.100000 0
0.600000 0.100000 0
0.700000 0.100000 0
0.800000 0.100000 0
0.900000 0.100000 0
1.000000 0.100000 0
1.100000 0.100000 0
1.200000 0.100000 0
1.300000 0.100000 0
1.400000 0.100000 0
1.500000 0.100000 0
1.600000 0.100000 0
1.700000 0.100000 0
1.800000 0.100000 0
1.900000 0.100000 0
2.000000 0.100000 0
0.000000 0.200000 0
0.100000 0.200000 0
0.200000 0.200000 0
0.300000 0.200000 0
0.400000 0.200000 0
0.500000 0.200000 0
0.600000 0.200000 0
0.700000 0.200000 0
0.800000 0.200000 0
0.900000 0.200000 0
1.000000 0.200000 0
1.100000 0.200000 0
1.200000 0.200000 0
1.300000 0.200000 0
1.400000 0.200000 0
1.500000 0.200000 0
1.600000 0.200000 0
1.700000 0.200000 0
1.800000 0.200000 0
1.900000 0.200000 0
2.000000 0.200000 0
0.000000 0.300000 0
0.100000 0.300000 0
0.200000 0.300000 0
0.300000 0.300000 0
0.400000 0.300000 0
0.500000 0.300000 0
0.600000 0.300000 0
0.700000 0.300000 0
0.800000 0.300000 0
0.900000 0.300000 0
1.000000 0.300000 0
1.100000 0.300000 0
1.200000 0.300000 0
1.300000 0.300000 0
1.400000 0.300000 0
1.500000 0.300000 0
1.600000 0.300000 0
1.700000 0.300000 0
1.800000 0.300000 0
1.900000 0.300000 0
2.000000 0.300000 0
0.000000 0.400000 0
0.100000 0.400000 0
0.200000 0.400000 0
0.300000 0.400000 0
0.400000 0.400000 0
0.500000 0.400000 0
0.600000 0.400000 0
0.700000 0.400000 0
0.800000 0.400000 0
0.900000 0.400000 0
1.000000 0.400000 0
1.100000 0.400000 0
1.200000 0.400000 0
1.300000 0.400000 0
1.400000 0.400000 0
1.500000 0.400000 0
1.600000 0.400000 0
1.700000 0.400000 0
1.800000 0.400000 0
1.900000 0.400000 0
2.000000 0.400000 0
0.000000 0.500000 0
0.100000 0.500000 0
0.200000 0.500000 0
0.300000 0.500000 0
0.400000 0.500000 0
0.500000 0.500000 0
0.600000 0.500000 0
0.700000 0.500000 0
0.800000 0.500000 0
0.900000 0.500000 0
1.000000 0.500000 0
1.100000 0.500000 0
1.200000 0.500000 0
1.300000 0.500000 0
1.400000 0.500000 0
1.500000 0.500000 0
1.600000 0.500000 0
1.700000 0.500000 0
1.800000 0.500000 0
1.900000 0.500000 0
2.000000 0.500000 0
0.000000 0.600000 0
0.100000 0.600000 0
0.200000 0.600000 0
0.300000 0.600000 0
0.400000 0.600000 0
0.500000 0.600000 0
0.600000 0.600000 0
0.700000 0.600000 0
0.800000 0.600000 0
0.900000 0.600000 0
1.000000 0.600000 0
1.100000 0.600000 0
1.200000 0.600000 0
1.300000 0.600000 0
1.400000 0.600000 0
1.500000 0.600000 0
1.600000 0.600000 0
1.700000 0.600000 0
1.800000 0.600000 0
1.900000 0.600000 0
2.000000 0.600000 0
0.000000 0.700000 0
0.100000 0.700000 0
0.200000 0.700000 0
0.300000 0.700000 0
0.400000 0.700000 0
0.500000 0.700000 0
0.600000 0.700000 0
0.700000 0.700000 0
0.800000 0.700000 0
0.900000 0.700000 0
1.000000 0.700000 0
1.100000 0.700000 0
1.200000 0.700000 0
1.300000 0.700000 0
1.400000 0.700000 0
1.500000 0.700000 0
1.600000 0.700000 0
1.700000 0.700000 0
1.800000 0.700000 0
1.900000 0.700000 0
2.000000 0.700000 0
0.000000 0.800000 0
0.100000 0.800000 0
0.200000 0.800000 0
0.300000 0.800000 0
0.400000 0.800000 0
0.500000 0.800000 0
0.600000 0.800000 0
0.700000 0.800000 0
0.800000 0.800000 0
0.900000 0.800000 0
1.000000 0.800000 0
1.100000 0.800000 0
1.200000 0.800000 0
1.300000 0.800000 0
1.400000 0.800000 0
1.500000 0.800000 0
1.600000 0.800000 0
1.700000 0.800000 0
1.800000 0.800000 0
1.900000 0.800000 0
2.000000 0.800000 0
0.000000 0.900000 0
0.100000 0.900000 0
0.200000 0.900000 0
0.300000 0.900000 0
0.400000 0.900000 0
0.500000 0.900000 0
0.600000 0.900000 0
0.700000 0.900000 0
0.800000 0.900000 0
0.900000 0.900000 0
1.000000 0.900000 0
1.100000 0.900000 0
1.200000 0.900000 0
1.300000 0.900000 0
1.400000 0.900000 0
1.500000 0.900000 0
1.600000 0.900000 0
1.700000 0.900000 0
1.800000 0.900000 0
1.900000 0.900000 0
2.000000 0.900000 0
0.000000 1.000000 0
0.100000 1.000000 0
0.200000 1.000000 0
0.300000 1.000000 0
0.400000 1.000000 0
0.500000 1.000000 0
0.600000 1.000000 0
0.700000 1.000000 0
0.800000 1.000000 0
0.900000 1.000000 0
1.000000 1.000000 0
1.100000 1.000000 0
1.200000 1.000000 0
1.300000 1.000000 0
1.400000 1.000000 0
1.500000 1.000000 0
1.600000 1.000000 0
1.700000 1.000000 0
1.800000 1.000000 0
1.900000 1.000000 0
2.000000 1.000000 0
0.000000 1.100000 0
0.100000 1.100000 0
0.200000 1.100000 0
0.300000 1.100000 0
0.400000 1.100000 0
0.500000 1.100000 0
0.600000 1.100000 0
0.700000 1.100000 0
0.800000 1.100000 0
0.900000 1.100000 0
1.000000 1.100000 0
1.100000 1.100000 0
1.200000 1.100000 0
1.300000 1.100000 0
1.400000 1.100000 0
1.500000 1.100000 0
1.600000 1.100000 0
1.700000 1.100000 0
1.800000 1.100000 0
1.900000 1.100000 0
2.000000 1.100000 0
0.000000 1.200000 0
0.100000 1.200000 0
0.200000 1.200000 0
0.300000 1.200000 0
0.400000 1.200000 0
0.500000 1.200000 0
0.600000 1.200000 0
0.700000 1.200000 0
0.800000 1.200000 0
0.900000 1.200000 0
1.000000 1.200000 0
1.100000 1.200000 0
1.200000 1.200000 0
1.300000 1.200000 0
1.400000 1.200000 0
1.500000 1.200000 0
1.600000 1.200000 0
1.700000 1.200000 0
1.800000 1.200000 0
1.900000 1.200000 0
2.000000 1.200000 0
0.000000 1.300000 0
0.100000 1.300000 0
0.200000 1.300000 0
0.300000 1.300000 0
0.400000 1.300000 0
0.500000 1.300000 0
0.600000 1.300000 0
0.700000 1.300000 0
0.800000 1.300000 0
0.900000 1.300000 0
1.000000 1.300000 0
1.100000 1.300000 0
1.200000 1.300000 0
1.300000 1.300000 0
1.400000 1.300000 0
1.500000 1.300000 0
1.600000 1.300000 0
1.700000 1.300000 0
1.800000 1.300000 0
1.900000 1.300000 0
2.000000 1.300000 0
0.000000 1.400000 0
0.100000 1.400000 0
0.200000 1.400000 0
0.300000 1.400000 0
0.400000 1.400000 0
0.500000 1.400000 0
0.600000 1.400000 0
0.700000 1.400000 0
0.800000 1.400000 0
0.900000 1.400000 0
1.000000 1.400000 0
1.100000 1.400000 0
1.200000 1.400000 0
1.300000 1.400000 0
1.400000 1.400000 0
1.500000 1.400000 0
1.600000 1.400000 0
1.700000 1.400000 0
1.800000 1.400000 0
1.900000 1.400000 0
2.000000 1.400000 0
0.000000 1.500000 0
0.100000 1.500000 0
0.200000 1.500000 0
0.300000 1.500000 0
0.400000 1.500000 0
0.500000 1.500000 0
0.600000 1.500000 0
0.700000 1.500000 0
0.800000 1.500000 0
0.900000 1.500000 0
1.000000 1.500000 0
1.100000 1.500000 0
1.200000 1.500000 0
1.300000 1.500000 0
1.400000 1.500000 0
1.500000 1.500000 0
1.600000 1.500000 0
1.700000 1.500000 0
1.800000 1.500000 0
1.900000 1.500000 0
2.000000 1.500000 0
0.000000 1.600000 0
0.100000 1.600000 0
0.200000 1.600000 0
0.300000 1.600000 0
0.400000 1.600000 0
0.500000 1.600000 0
0.600000 1.600000 0
0.700000 1.600000 0
0.800000 1.600000 0
0.900000 1.600000 0
1.000000 1.600000 0
1.100000 1.600000 0
1.200000 1.600000 0
1.300000 1.600000 0
1.400000 1.600000 0
1.500000 1.600000 0
1.600000 1.600000 0
1.700000 1.600000 0
1.800000 1.600000 0
1.900000 1.600000 0
2.000000 1.600000 0
0.000000 1.700000 0
0.100000 1.700000 0
0.200000 1.700000 0
0.300000 1.700000 0
0.400000 1.700000 0
0.500000 1.700000 0
0.600000 1.700000 0
0.700000 1.700000 0
0.800000 1.700000 0
0.900000 1.700000 0
1.000000 1.700000 0
1.100000 1.700000 0
1.200000 1.700000 0
1.300000 1.700000 0
1.400000 1.700000 0
1.500000 1.700000 0
1.600000 1.700000 0
1.700000 1.700000 0
1.800000 1.700000 0
1.900000 1.700000 0
2.000000 1.700000 0
0.000000 1.800000 0
0.100000 1.800000 0
0.200000 1.800000 0
0.300000 1.800000 0
0.400000 1.800000 0
0.500000 1.800000 0
0.600000 1.800000 0
0.700000 1.800000 0
0.800000 1.800000 0
0.900000 1.800000 0
1.000000 1.800000 0
1.100000 1.800000 0
1.200000 1.800000 0
1.300000 1.800000 0
1.400000 1.800000 0
1.500000 1.800000 0
1.600000 1.800000 0
1.700000 1.800000 0
1.800000 1.800000 0
1.900000 1.800000 0
2.000000 1.800000 0
0.000000 1.900000 0
0.100000 1.900000 0
0.200000 1.900000 0
0.300000 1.900000 0
0.400000 1.900000 0
0.500000 1.900000 0
0.600000 1.900000 0
0.700000 1.900000 0
0.800000 1.900000 0
0.900000 1.900000 0
1.000000 1.900000 0
1.100000 1.900000 0
1.200000 1.900000 0
1.300000 1.900000 0
1.400000 1.900000 0
1.500000 1.900000 0
1.600000 1.900000 0
1.700000 1.900000 0
1.800000 1.900000 0
1.900000 1.900000 0
2.000000 1.900000 0
0.000000 2.000000 0
0.100000 2.000000 0
0.200000 2.000000 0
0.300000 2.000000 0
0.400000 2.000000 0
0.500000 2.000000 0
0.600000 2.000000 0
0.700000 2.000000 0
0.800000 2.000000 0
0.900000 2.000000 0
1.000000 2.000000 0
1.100000 2.000000 0
1.200000 2.000000 0
1.300000 2.000000 0
1.400000 2.000000 0
1.500000 2.000000 0
1.600000 2.000000 0
1.700000 2.000000 0
1.800000 2.000000 0
1.900000 2.000000 0
2.000000 2.000000 0
POINT_DATA 441 

VECTORS velocity float
0.000000 0.000000 0
0.000003 0.000000 0
0.000010 0.000000 0
0.000008 0.000000 0
0.000001 0.000000 0
-0.000005 0.000000 0
-0.000007 0.000000 0
-0.000005 0.000000 0
-0.000002 0.000000 0
0.000001 0.000000 0
0.000003 0.000000 0
0.000002 0.000000 0
0.000001 0.000000 0
0.000000 0.000000 0
-0.000001 0.000000 0
-0.000001 0.000000 0
-0.000001 0.000000 0
-0.000000 0.000000 0
-0.000000 0.000000 0
-0.000000 0.000000 0
-0.000000 0.000000 0
0.000000 0.000009 0
0.000008 0.000006 0
0.000014 0.000005 0
0.000015 -0.000003 0
0.000014 -0.000011 0
0.000011 -0.000012 0
0.000008 -0.000006 0
0.000004 0.000003 0
-0.000002 0.000011 0
-0.000010 0.000014 0
-0.000019 0.000014 0
-0.000028 0.000011 0
-0.000036 0.000007 0
-0.000041 0.000004 0
-0.000045 0.000001 0
-0.000047 0.000000 0
-0.000047 -0.000000 0
-0.000047 -0.000000 0
-0.000047 -0.000000 0
-0.000047 -0.000000 0
-0.000046 -0.000000 0
0.000000 0.000008 0
0.000006 -0.000005 0
0.000008 -0.000013 0
0.000011 -0.000014 0
0.000015 -0.000008 0
0.000017 0.000002 0
0.000016 0.000012 0
0.000010 0.000019 0
0.000000 0.000022 0
-0.000011 0.000022 0
-0.000022 0.000019 0
-0.000032 0.000014 0
-0.000040 0.000010 0
-0.000045 0.000007 0
-0.000048 0.000004 0
-0.000050 0.000002 0
-0.000050 0.000001 0
-0.000050 -0.000000 0
-0.000049 -0.000001 0
-0.000049 -0.000001 0
-0.000048 -0.000001 0
0.000000 -0.000004 0
0.000001 -0.000019 0
0.000008 -0.000017 0
0.000016 -0.000009 0
0.000023 0.000002 0
0.000025 0.000011 0
0.000021 0.000018 0
0.000013 0.000023 0
0.000001 0.000026 0
-0.000012 0.000027 0
-0.000025 0.000026 0
-0.000035 0.000023 0
-0.000043 0.000018 0
-0.000048 0.000013 0
-0.000050 0.000008 0
-0.000051 0.000004 0
-0.000051 0.000001 0
-0.000050 -0.000001 0
-0.000049 -0.000001 0
-0.000048 -0.000001 0
-0.000048 -0.000001 0
0.000000 -0.000004 0
0.000004 -0.000023 0
0.000014 -0.000016 0
0.000023 -0.000009 0
0.000029 -0.000001 0
0.000030 0.000006 0
0.000026 0.000016 0
0.000017 0.000026 0
0.000004 0.000036 0
-0.000011 0.000041 0
-0.000026 0.000041 0
-0.000038 0.000036 0
-0.000047 0.000027 0
-0.000052 0.000018 0
-0.000054 0.000009 0
-0.000053 0.000003 0
-0.000052 -0.000001 0
-0.000050 -0.000002 0
-0.000048 -0.000003 0
-0.000047 -0.000002 0
-0.000047 -0.000001 0
0.000000 0.000002 0
0.000009 -0.000028 0
0.000018 -0.000024 0
0.000026 -0.000019 0
0.000032 -0.000011 0
0.000035 0.000002 0
0.000033 0.000020 0
0.000025 0.000039 0
0.000011 0.000054 0
-0.000008 0.000061 0
-0.000028 0.000059 0
-0.000043 0.000049 0
-0.000053 0.000034 0
-0.000058 0.000020 0
-0.000058 0.000008 0
-0.000055 0.000001 0
-0.000052 -0.000004 0
-0.000049 -0.000005 0
-0.000046 -0.000004 0
-0.000045 -0.000002 0
-0.000045 -0.000001 0
0.000000 0.000002 0
0.000011 -0.000038 0
0.000019 -0.000038 0
0.000028 -0.000030 0
0.000038 -0.000017 0
0.000044 0.000004 0
0.000044 0.000029 0
0.000035 0.000054 0
0.000017 0.000074 0
-0.000007 0.000082 0
-0.000031 0.000077 0
-0.000049 0.000061 0
-0.000059 0.000040 0
-0.000062 0.000021 0
-0.000060 0.000006 0
-0.000056 -0.000003 0
-0.000051 -0.000007 0
-0.000046 -0.000008 0
-0.000043 -0.000006 0
-0.000042 -0.000003 0
-0.000041 -0.000002 0
0.000000 -0.000001 0
0.000010 -0.000051 0
0.000020 -0.000049 0
0.000031 -0.000039 0
0.000042 -0.000021 0
0.000050 0.000003 0
0.000051 0.000035 0
0.000042 0.000068 0
0.000022 0.000095 0
-0.000006 0.000106 0
-0.000033 0.000098 0
-0.000053 0.000075 0
-0.000063 0.000046 0
-0.000064 0.000021 0
-0.000060 0.000002 0
-0.000053 -0.000008 0
-0.000047 -0.000012 0
-0.000042 -0.000012 0
-0.000038 -0.000009 0
-0.000036 -0.000004 0
-0.000036 -0.000002 0
0.000000 -0.000002 0
0.000009 -0.000062 0
0.000019 -0.000059 0
0.000031 -0.000048 0
0.000042 -0.000030 0
0.000050 -0.000002 0
0.000052 0.000036 0
0.000045 0.000081 0
0.000025 0.000118 0
-0.000004 0.000135 0
-0.000033 0.000123 0
-0.000053 0.000091 0
-0.000061 0.000052 0
-0.000060 0.000018 0
-0.000054 -0.000004 0
-0.000046 -0.000015 0
-0.000040 -0.000019 0
-0.000034 -0.000017 0
-0.000031 -0.000012 0
-0.000029 -0.000006 0
-0.000029 -0.000002 0
0.000000 -0.000000 0
0.000008 -0.000070 0
0.000016 -0.000069 0
0.000024 -0.000059 0
0.000033 -0.000041 0
0.000041 -0.000010 0
0.000044 0.000037 0
0.000039 0.000094 0
0.000023 0.000143 0
-0.000002 0.000164 0
-0.000027 0.000148 0
-0.000043 0.000104 0
-0.000049 0.000054 0
-0.000047 0.000014 0
-0.000041 -0.000011 0
-0.000034 -0.000023 0
-0.000028 -0.000025 0
-0.000024 -0.000021 0
-0.000021 -0.000015 0
-0.000019 -0.000006 0
-0.000019 -0.000002 0
0.000000 0.000000 0
0.000005 -0.000076 0
0.000009 -0.000077 0
0.000013 -0.000068 0
0.000018 -0.000049 0
0.000023 -0.000014 0
0.000026 0.000039 0
0.000024 0.000104 0
0.000015 0.000161 0
0.000000 0.000186 0
-0.000014 0.000165 0
-0.000024 0.000113 0
-0.000027 0.000055 0
-0.000025 0.000010 0
-0.000021 -0.000017 0
-0.000017 -0.000028 0
-0.000013 -0.000029 0
-0.000010 -0.000024 0
-0.000009 -0.000017 0
-0.000008 -0.000007 0
-0.000008 -0.000002 0
0.000000 -0.000000 0
0.000000 -0.000079 0
-0.000000 -0.000080 0
-0.000001 -0.000071 0
-0.000001 -0.000051 0
-0.000000 -0.000015 0
0.000000 0.000039 0
0.000001 0.000107 0
0.000001 0.000167 0
0.000002 0.000192 0
0.000003 0.000171 0
0.000003 0.000116 0
0.000004 0.000055 0
0.000004 0.000008 0
0.000004 -0.000019 0
0.000004 -0.000030 0
0.000004 -0.000031 0
0.000005 -0.000026 0
0.000005 -0.000017 0
0.000005 -0.000007 0
0.000005 -0.000002 0
0.000000 -0.000001 0
-0.000004 -0.000077 0
-0.000009 -0.000077 0
-0.000014 -0.000067 0
-0.000019 -0.000048 0
-0.000024 -0.000014 0
-0.000026 0.000038 0
-0.000023 0.000102 0
-0.000012 0.000159 0
0.000004 0.000183 0
0.000020 0.000163 0
0.000030 0.000112 0
0.000034 0.000055 0
0.000032 0.000010 0
0.000029 -0.000017 0
0.000025 -0.000028 0
0.000022 -0.000029 0
0.000019 -0.000025 0
0.000018 -0.000017 0
0.000017 -0.000007 0
0.000017 -0.000002 0
0.000000 -0.000000 0
-0.000007 -0.000070 0
-0.000015 -0.000069 0
-0.000025 -0.000060 0
-0.000034 -0.000041 0
-0.000042 -0.000009 0
-0.000044 0.000037 0
-0.000038 0.000092 0
-0.000020 0.000140 0
0.000006 0.000161 0
0.000032 0.000145 0
0.000049 0.000102 0
0.000056 0.000053 0
0.000054 0.000013 0
0.000049 -0.000012 0
0.000043 -0.000023 0
0.000037 -0.000025 0
0.000033 -0.000022 0
0.000030 -0.000015 0
0.000029 -0.000006 0
0.000028 -0.000002 0
0.000000 0.000000 0
-0.000009 -0.000060 0
-0.000020 -0.000059 0
-0.000031 -0.000050 0
-0.000042 -0.000032 0
-0.000050 -0.000004 0
-0.000051 0.000035 0
-0.000043 0.000079 0
-0.000022 0.000116 0
0.000007 0.000132 0
0.000037 0.000120 0
0.000057 0.000088 0
0.000067 0.000049 0
0.000067 0.000016 0
0.000062 -0.000005 0
0.000055 -0.000016 0
0.000049 -0.000020 0
0.000044 -0.000018 0
0.000040 -0.000012 0
0.000039 -0.000006 0
0.000038 -0.000002 0
0.000000 -0.000000 0
-0.000010 -0.000050 0
-0.000022 -0.000048 0
-0.000033 -0.000039 0
-0.000043 -0.000023 0
-0.000050 0.000000 0
-0.000049 0.000031 0
-0.000040 0.000064 0
-0.000019 0.000091 0
0.000009 0.000102 0
0.000037 0.000094 0
0.000058 0.000072 0
0.000069 0.000043 0
0.000071 0.000018 0
0.000068 0.000000 0
0.000062 -0.000010 0
0.000057 -0.000014 0
0.000052 -0.000013 0
0.000048 -0.000010 0
0.000047 -0.000004 0
0.000046 -0.000002 0
0.000000 -0.000000 0
-0.000010 -0.000039 0
-0.000021 -0.000036 0
-0.000032 -0.000028 0
-0.000040 -0.000016 0
-0.000045 0.000003 0
-0.000044 0.000025 0
-0.000034 0.000049 0
-0.000015 0.000067 0
0.000010 0.000075 0
0.000035 0.000071 0
0.000054 0.000056 0
0.000066 0.000036 0
0.000070 0.000017 0
0.000069 0.000003 0
0.000066 -0.000005 0
0.000061 -0.000009 0
0.000057 -0.000009 0
0.000054 -0.000007 0
0.000053 -0.000003 0
0.000052 -0.000001 0
0.000000 -0.000000 0
-0.000010 -0.000028 0
-0.000020 -0.000026 0
-0.000029 -0.000020 0
-0.000037 -0.000010 0
-0.000040 0.000003 0
-0.000037 0.000019 0
-0.000027 0.000035 0
-0.000010 0.000047 0
0.000011 0.000053 0
0.000032 0.000050 0
0.000050 0.000040 0
0.000062 0.000027 0
0.000067 0.000015 0
0.000069 0.000004 0
0.000067 -0.000002 0
0.000064 -0.000006 0
0.000061 -0.000006 0
0.000058 -0.000005 0
0.000057 -0.000002 0
0.000057 -0.000001 0
0.000000 0.000000 0
-0.000009 -0.000018 0
-0.000019 -0.000017 0
-0.000027 -0.000013 0
-0.000033 -0.000006 0
-0.000035 0.000003 0
-0.000031 0.000013 0
-0.000022 0.000022 0
-0.000007 0.000030 0
0.000011 0.000033 0
0.000030 0.000032 0
0.000046 0.000026 0
0.000058 0.000018 0
0.000065 0.000010 0
0.000067 0.000004 0
0.000067 -0.000001 0
0.000065 -0.000003 0
0.000063 -0.000004 0
0.000061 -0.000003 0
0.000060 -0.000002 0
0.000059 -0.000001 0
0.000000 0.000000 0
-0.000009 -0.000009 0
-0.000018 -0.000008 0
-0.000026 -0.000006 0
-0.000030 -0.000003 0
-0.000032 0.000001 0
-0.000028 0.000006 0
-0.000019 0.000011 0
-0.000006 0.000014 0
0.000011 0.000016 0
0.000028 0.000015 0
0.000043 0.000012 0
0.000054 0.000009 0
0.000061 0.000005 0
0.000064 0.000002 0
0.000065 -0.000000 0
0.000063 -0.000001 0
0.000061 -0.000002 0
0.000060 -0.000001 0
0.000058 -0.000001 0
0.000058 -0.000000 0
0.000000 0.000000 0
-0.000000 0.000000 0
0.000000 0.000000 0
0.000000 0.000000 0
-0.000000 0.000000 0
-0.000000 0.000000 0
-0.000000 0.000000 0
-0.000000 0.000000 0
-0.000000 0.000000 0
-0.000000 0.000000 0
0.000000 0.000000 0
0.000000 0.000000 0
0.000000 0.000000 0
0.000000 0.000000 0
0.000000 0.000000 0
0.000000 0.000000 0
0.000000 0.000000 0
0.000000 0.000000 0
0.000000 0.000000 0
0.000000 0.000000 0
0.000000 0.000000 0

CELL_DATA 400 
SCALARS pressure float 1 
LOOKUP_TABLE default 
0.242658
0.242647
0.242606
0.242575
0.242570
0.242589
0.242617
0.242637
0.242643
0.242638
0.242627
0.242618
0.242613
0.242612
0.242614
0.242617
0.242619
0.242620
0.242621
0.242622
0.219621
0.219598
0.219598
0.219613
0.219629
0.219638
0.219636
0.219627
0.219617
0.219611
0.219609
0.219611
0.219615
0.219618
0.219620
0.219621
0.219621
0.219621
0.219622
0.219622
0.196590
0.196610
0.196636
0.196647
0.196641
0.196624
0.196608
0.196599
0.196600
0.196607
0.196615
0.196620
0.196623
0.196623
0.196622
0.196621
0.196620
0.196620
0.196621
0.196622
0.173606
0.173632
0.173640
0.173631
0.173615
0.173602
0.173598
0.173603
0.173611
0.173619
0.173623
0.173624
0.173622
0.173620
0.173619
0.173619
0.173619
0.173620
0.173621
0.173622
0.150624
0.150625
0.150619
0.150613
0.150610
0.150611
0.150614
0.150618
0.150620
0.150621
0.150620
0.150619
0.150618
0.150618
0.150618
0.150619
0.150620
0.150621
0.150621
0.150622
0.127618
0.127611
0.127613
0.127619
0.127624
0.127625
0.127623
0.127619
0.127615
0.127614
0.127614
0.127615
0.127617
0.127619
0.127620
0.127620
0.127621
0.127621
0.127622
0.127622
0.104610
0.104613
0.104621
0.104629
0.104629
0.104624
0.104618
0.104613
0.104611
0.104612
0.104615
0.104617
0.104619
0.104620
0.104621
0.104621
0.104621
0.104621
0.104622
0.104622
0.081615
0.081620
0.081624
0.081625
0.081623
0.081618
0.081615
0.081613
0.081614
0.081616
0.081618
0.081619
0.081620
0.081620
0.081620
0.081621
0.081621
0.081621
0.081622
0.081622
0.058622
0.058620
0.058619
0.058619
0.058619
0.058620
0.058619
0.058619
0.058619
0.058619
0.058619
0.058619
0.058619
0.058620
0.058620
0.058621
0.058621
0.058622
0.058622
0.058622
0.035623
0.035618
0.035617
0.035620
0.035623
0.035625
0.035624
0.035622
0.035620
0.035619
0.035618
0.035619
0.035620
0.035621
0.035622
0.035622
0.035622
0.035622
0.035622
0.035622
0.012621
0.012619
0.012621
0.012624
0.012626
0.012626
0.012625
0.012622
0.012621
0.012620
0.012620
0.012621
0.012622
0.012622
0.012623
0.012623
0.012623
0.012623
0.012622
0.012622
-0.010377
-0.010378
-0.010377
-0.010376
-0.010375
-0.010375
-0.010375
-0.010376
-0.010376
-0.010377
-0.010376
-0.010376
-0.010376
-0.010376
-0.010377
-0.010377
-0.010377
-0.010377
-0.010377
-0.010377
-0.033374
-0.033376
-0.033377
-0.033377
-0.033376
-0.033374
-0.033373
-0.033373
-0.033373
-0.033374
-0.033374
-0.033375
-0.033375
-0.033376
-0.033376
-0.033376
-0.033376
-0.033377
-0.033377
-0.033377
-0.056373
-0.056375
-0.056377
-0.056376
-0.056374
-0.056372
-0.056371
-0.056371
-0.056371
-0.056372
-0.056373
-0.056374
-0.056374
-0.056375
-0.056375
-0.056375
-0.056376
-0.056376
-0.056377
-0.056377
-0.079373
-0.079374
-0.079375
-0.079374
-0.079373
-0.079372
-0.079371
-0.079371
-0.079371
-0.079372
-0.079372
-0.079373
-0.079373
-0.079374
-0.079374
-0.079375
-0.079375
-0.079376
-0.079377
-0.079377
-0.102373
-0.102373
-0.102373
-0.102373
-0.102373
-0.102372
-0.102371
-0.102371
-0.102370
-0.102371
-0.102371
-0.102372
-0.102372
-0.102373
-0.102374
-0.102375
-0.102375
-0.102376
-0.102376
-0.102377
-0.125372
-0.125372
-0.125373
-0.125373
-0.125373
-0.125372
-0.125371
-0.125370
-0.125370
-0.125370
-0.125371
-0.125371
-0.125372
-0.125373
-0.125374
-0.125374
-0.125375
-0.125376
-0.125376
-0.125377
-0.148371
-0.148372
-0.148373
-0.148373
-0.148372
-0.148371
-0.148370
-0.148370
-0.148370
-0.148370
-0.148371
-0.148371
-0.148372
-0.148373
-0.148373
-0.148374
-0.148375
-0.148375
-0.148376
-0.148377
-0.171372
-0.171372
-0.171372
-0.171372
-0.171372
-0.171371
-0.171370
-0.171370
-0.171370
-0.171370
-0.171370
-0.171371
-0.171372
-0.171372
-0.171373
-0.171374
-0.171375
-0.171375
-0.171376
-0.171377
-0.194372
-0.194371
-0.194371
-0.194371
-0.194371
-0.194371
-0.194370
-0.194370
-0.194370
-0.194370
-0.194370
-0.194370
-0.194371
-0.194372
-0.194373
-0.194374
-0.194374
-0.194375
-0.194376
-0.194377

SCALARS temperature float 1 
LOOKUP_TABLE default 
0.000005
0.000042
0.000117
0.000226
0.000363
0.000515
0.000663
0.000786
0.000863
0.000884
0.000846
0.000761
0.000647
0.000521
0.000403
0.000301
0.000222
0.000166
0.000131
0.000114
0.000006
0.000050
0.000140
0.000271
0.000437
0.000621
0.000802
0.000952
0.001046
0.001070
0.001022
0.000915
0.000773
0.000620
0.000476
0.000354
0.000260
0.000193
0.000151
0.000131
0.000008
0.000068
0.000190
0.000371
0.000601
0.000860
0.001116
0.001329
0.001462
0.001491
0.001416
0.001259
0.001053
0.000835
0.000633
0.000465
0.000338
0.000249
0.000194
0.000167
0.000011
0.000099
0.000278
0.000546
0.000892
0.001289
0.001686
0.002019
0.002224
0.002263
0.002134
0.001876
0.001547
0.001207
0.000901
0.000652
0.000466
0.000339
0.000261
0.000225
0.000017
0.000148
0.000415
0.000824
0.001364
0.001994
0.002637
0.003182
0.003516
0.003567
0.003334
0.002890
0.002343
0.001794
0.001314
0.000933
0.000656
0.000470
0.000359
0.000307
0.000025
0.000217
0.000615
0.001235
0.002072
0.003076
0.004125
0.005031
0.005586
0.005650
0.005227
0.004457
0.003540
0.002652
0.001900
0.001323
0.000913
0.000645
0.000486
0.000413
0.000036
0.000308
0.000881
0.001791
0.003056
0.004619
0.006306
0.007798
0.008716
0.008793
0.008036
0.006720
0.005214
0.003812
0.002668
0.001818
0.001233
0.000857
0.000639
0.000540
0.000048
0.000416
0.001199
0.002473
0.004295
0.006629
0.009238
0.011620
0.013103
0.013186
0.011888
0.009726
0.007354
0.005238
0.003579
0.002389
0.001591
0.001091
0.000805
0.000677
0.000061
0.000526
0.001532
0.003202
0.005661
0.008922
0.012711
0.016289
0.018555
0.018635
0.016565
0.013250
0.009760
0.006778
0.004528
0.002965
0.001945
0.001318
0.000965
0.000807
0.000071
0.000620
0.001816
0.003837
0.006883
0.011045
0.016043
0.020909
0.024044
0.024116
0.021178
0.016610
0.011967
0.008138
0.005341
0.003448
0.002237
0.001503
0.001094
0.000913
0.000078
0.000674
0.001983
0.004212
0.007616
0.012344
0.018131
0.023868
0.027604
0.027673
0.024135
0.018719
0.013320
0.008956
0.005824
0.003734
0.002410
0.001614
0.001172
0.000976
0.000078
0.000676
0.001986
0.004216
0.007612
0.012321
0.018074
0.023771
0.027484
0.027560
0.024059
0.018688
0.013322
0.008975
0.005848
0.003756
0.002429
0.001629
0.001184
0.000987
0.000072
0.000626
0.001830
0.003854
0.006889
0.011013
0.015940
0.020724
0.023812
0.023904
0.021045
0.016574
0.012002
0.008208
0.005417
0.003517
0.002294
0.001549
0.001132
0.000947
0.000062
0.000539
0.001562
0.003251
0.005716
0.008957
0.012695
0.016212
0.018446
0.018551
0.016554
0.013323
0.009891
0.006929
0.004671
0.003087
0.002043
0.001396
0.001028
0.000864
0.000050
0.000437
0.001254
0.002571
0.004434
0.006793
0.009408
0.011783
0.013268
0.013376
0.012119
0.009994
0.007633
0.005500
0.003804
0.002570
0.001732
0.001201
0.000894
0.000755
0.000039
0.000339
0.000964
0.001947
0.003295
0.004941
0.006697
0.008242
0.009198
0.009299
0.008549
0.007216
0.005666
0.004200
0.002982
0.002063
0.001419
0.001000
0.000753
0.000640
0.000030
0.000259
0.000728
0.001451
0.002415
0.003554
0.004731
0.005742
0.006365
0.006454
0.006009
0.005176
0.004165
0.003167
0.002305
0.001631
0.001144
0.000819
0.000625
0.000535
0.000023
0.000200
0.000558
0.001100
0.001805
0.002619
0.003440
0.004132
0.004561
0.004638
0.004362
0.003818
0.003133
0.002434
0.001809
0.001305
0.000931
0.000677
0.000522
0.000450
0.000019
0.000162
0.000451
0.000882
0.001434
0.002060
0.002681
0.003200
0.003523
0.003591
0.003403
0.003012
0.002507
0.001977
0.001492
0.001092
0.000790
0.000581
0.000452
0.000391
0.000017
0.000144
0.000400
0.000779
0.001260
0.001802
0.002335
0.002779
0.003056
0.003119
0.002966
0.002641
0.002214
0.001760
0.001340
0.000988
0.000720
0.000532
0.000416
0.000361


SCALARS Species_1 float 1 
LOOKUP_TABLE default 
0.000535
0.001616
0.002726
0.003875
0.005062
0.006272
0.007478
0.008642
0.009718
0.010663
0.011437
0.012012
0.012379
0.012548
0.012546
0.012418
0.012219
0.012006
0.011832
0.011734
0.000545
0.001646
0.002777
0.003947
0.005154
0.006384
0.007609
0.008790
0.009882
0.010841
0.011626
0.012210
0.012584
0.012756
0.012755
0.012627
0.012428
0.012214
0.012038
0.011940
0.000563
0.001700
0.002867
0.004074
0.005318
0.006584
0.007844
0.009059
0.010183
0.011168
0.011975
0.012575
0.012959
0.013137
0.013137
0.013007
0.012803
0.012585
0.012405
0.012305
0.000586
0.001770
0.002983
0.004237
0.005529
0.006843
0.008150
0.009409
0.010573
0.011594
0.012429
0.013051
0.013448
0.013632
0.013633
0.013499
0.013289
0.013064
0.012879
0.012776
0.000611
0.001844
0.003108
0.004413
0.005756
0.007122
0.008480
0.009787
0.010995
0.012053
0.012919
0.013563
0.013975
0.014166
0.014168
0.014030
0.013812
0.013580
0.013388
0.013282
0.000634
0.001913
0.003223
0.004574
0.005965
0.007378
0.008782
0.010133
0.011380
0.012473
0.013367
0.014033
0.014458
0.014655
0.014657
0.014515
0.014292
0.014052
0.013855
0.013745
0.000651
0.001964
0.003309
0.004695
0.006121
0.007569
0.009006
0.010390
0.011666
0.012785
0.013699
0.014380
0.014815
0.015017
0.015019
0.014875
0.014647
0.014403
0.014203
0.014091
0.000659
0.001989
0.003350
0.004753
0.006195
0.007659
0.009112
0.010509
0.011798
0.012928
0.013851
0.014538
0.014978
0.015182
0.015186
0.015041
0.014812
0.014567
0.014365
0.014253
0.000657
0.001981
0.003336
0.004732
0.006167
0.007623
0.009067
0.010456
0.011738
0.012860
0.013778
0.014460
0.014898
0.015102
0.015106
0.014964
0.014738
0.014495
0.014296
0.014185
0.000642
0.001937
0.003261
0.004625
0.006027
0.007449
0.008859
0.010215
0.011466
0.012561
0.013457
0.014124
0.014552
0.014752
0.014758
0.014621
0.014402
0.014167
0.013973
0.013865
0.000615
0.001857
0.003126
0.004434
0.005777
0.007139
0.008490
0.009789
0.010987
0.012036
0.012894
0.013533
0.013944
0.014137
0.014145
0.014015
0.013808
0.013584
0.013400
0.013297
0.000578
0.001745
0.002938
0.004167
0.005429
0.006708
0.007978
0.009198
0.010323
0.011309
0.012116
0.012717
0.013105
0.013288
0.013297
0.013178
0.012985
0.012777
0.012605
0.012509
0.000533
0.001609
0.002709
0.003841
0.005005
0.006185
0.007355
0.008480
0.009518
0.010427
0.011172
0.011728
0.012086
0.012258
0.012269
0.012161
0.011985
0.011795
0.011638
0.011550
0.000483
0.001457
0.002454
0.003480
0.004534
0.005603
0.006664
0.007683
0.008624
0.009449
0.010125
0.010631
0.010958
0.011116
0.011128
0.011033
0.010876
0.010705
0.010564
0.010485
0.000431
0.001301
0.002191
0.003107
0.004049
0.005004
0.005952
0.006863
0.007705
0.008443
0.009049
0.009502
0.009797
0.009940
0.009954
0.009871
0.009733
0.009582
0.009457
0.009387
0.000381
0.001151
0.001938
0.002750
0.003583
0.004429
0.005269
0.006076
0.006823
0.007478
0.008016
0.008420
0.008683
0.008813
0.008827
0.008756
0.008636
0.008503
0.008394
0.008332
0.000337
0.001017
0.001713
0.002431
0.003168
0.003917
0.004660
0.005376
0.006037
0.006618
0.007097
0.007456
0.007692
0.007809
0.007824
0.007763
0.007658
0.007542
0.007446
0.007392
0.000301
0.000908
0.001530
0.002172
0.002832
0.003501
0.004167
0.004807
0.005400
0.005921
0.006351
0.006675
0.006888
0.006994
0.007010
0.006957
0.006864
0.006762
0.006676
0.006628
0.000275
0.000832
0.001402
0.001990
0.002595
0.003209
0.003820
0.004408
0.004952
0.005432
0.005827
0.006126
0.006322
0.006422
0.006438
0.006390
0.006306
0.006213
0.006135
0.006091
0.000262
0.000792
0.001336
0.001896
0.002473
0.003059
0.003641
0.004202
0.004722
0.005179
0.005557
0.005843
0.006031
0.006127
0.006143
0.006098
0.006019
0.005930
0.005856
0.005814


SCALARS Species_2 float 1 
LOOKUP_TABLE default 
0.000290
0.000854
0.001372
0.001819
0.002172
0.002421
0.002561
0.002595
0.002535
0.002395
0.002197
0.001960
0.001704
0.001448
0.001207
0.000992
0.000812
0.000673
0.000579
0.000531
0.000313
0.000923
0.001482
0.001964
0.002346
0.002615
0.002765
0.002802
0.002737
0.002587
0.002373
0.002117
0.001842
0.001565
0.001305
0.001073
0.000879
0.000729
0.000628
0.000576
0.000359
0.001056
0.001697
0.002247
0.002684
0.002990
0.003162
0.003204
0.003129
0.002957
0.002712
0.002420
0.002105
0.001790
0.001492
0.001228
0.001006
0.000835
0.000719
0.000660
0.000425