# vtk DataFile Version 2.0
generated by CFD-lab course output (written by Tobias Neckel) 
ASCII

DATASET STRUCTURED_GRID
DIMENSIONS  21 21 1 
POINTS 441 float

0.000000 0.000000 0
0.100000 0.000000 0
0.200000 0.000000 0
0.300000 0.000000 0
0.400000 0.000000 0
0.500000 0.000000 0
0.600000 0.000000 0
0.700000 0.000000 0
0.800000 0.000000 0
0.900000 0.000000 0
1.000000 0.000000 0
1.100000 0.000000 0
1.200000 0.000000 0
1.300000 0.000000 0
1.400000 0.000000 0
1.500000 0.000000 0
1.600000 0.000000 0
1.700000 0.000000 0
1.800000 0.000000 0
1.900000 0.000000 0
2.000000 0.000000 0
0.000000 0.100000 0
0.100000 0.100000 0
0.200000 0.100000 0
0.300000 0.100000 0
0.400000 0.100000 0
0.500000 0.100000 0
0.600000 0.100000 0
0.700000 0.100000 0
0.800000 0.100000 0
0.900000 0.100000 0
1.000000 0.100000 0
1.100000 0.100000 0
1.200000 0.100000 0
1.300000 0.100000 0
1.400000 0.100000 0
1.500000 0.100000 0
1.600000 0.100000 0
1.700000 0.100000 0
1.800000 0.100000 0
1.900000 0.100000 0
2.000000 0.100000 0
0.000000 0.200000 0
0.100000 0.200000 0
0.200000 0.200000 0
0.300000 0.200000 0
0.400000 0.200000 0
0.500000 0.200000 0
0.600000 0.200000 0
0.700000 0.200000 0
0.800000 0.200000 0
0.900000 0.200000 0
1.000000 0.200000 0
1.100000 0.200000 0
1.200000 0.200000 0
1.300000 0.200000 0
1.400000 0.200000 0
1.500000 0.200000 0
1.600000 0.200000 0
1.700000 0.200000 0
1.800000 0.200000 0
1.900000 0.200000 0
2.000000 0.200000 0
0.000000 0.300000 0
0.100000 0.300000 0
0.200000 0.300000 0
0.300000 0.300000 0
0.400000 0.300000 0
0.500000 0.300000 0
0.600000 0.300000 0
0.700000 0.300000 0
0.800000 0.300000 0
0.900000 0.300000 0
1.000000 0.300000 0
1.100000 0.300000 0
1.200000 0.300000 0
1.300000 0.300000 0
1.400000 0.300000 0
1.500000 0.300000 0
1.600000 0.300000 0
1.700000 0.300000 0
1.800000 0.300000 0
1.900000 0.300000 0
2.000000 0.300000 0
0.000000 0.400000 0
0.100000 0.400000 0
0.200000 0.400000 0
0.300000 0.400000 0
0.400000 0.400000 0
0.500000 0.400000 0
0.600000 0.400000 0
0.700000 0.400000 0
0.800000 0.400000 0
0.900000 0.400000 0
1.000000 0.400000 0
1.100000 0.400000 0
1.200000 0.400000 0
1.300000 0.400000 0
1.400000 0.400000 0
1.500000 0.400000 0
1.600000 0.400000 0
1.700000 0.400000 0
1.800000 0.400000 0
1.900000 0.400000 0
2.000000 0.400000 0
0.000000 0.500000 0
0.100000 0.500000 0
0.200000 0.500000 0
0.300000 0.500000 0
0.400000 0.500000 0
0.500000 0.500000 0
0.600000 0.500000 0
0.700000 0.500000 0
0.800000 0.500000 0
0.900000 0.500000 0
1.000000 0.500000 0
1.100000 0.500000 0
1.200000 0.500000 0
1.300000 0.500000 0
1.400000 0.500000 0
1.500000 0.500000 0
1.600000 0.500000 0
1.700000 0.500000 0
1.800000 0.500000 0
1.900000 0.500000 0
2.000000 0.500000 0
0.000000 0.600000 0
0.100000 0.600000 0
0.200000 0.600000 0
0.300000 0.600000 0
0.400000 0.600000 0
0.500000 0.600000 0
0.600000 0.600000 0
0.700000 0.600000 0
0.800000 0.600000 0
0.900000 0.600000 0
1.000000 0.600000 0
1.100000 0.600000 0
1.200000 0.600000 0
1.300000 0.600000 0
1.400000 0.600000 0
1.500000 0.600000 0
1.600000 0.600000 0
1.700000 0.600000 0
1.800000 0.600000 0
1.900000 0.600000 0
2.000000 0.600000 0
0.000000 0.700000 0
0.100000 0.700000 0
0.200000 0.700000 0
0.300000 0.700000 0
0.400000 0.700000 0
0.500000 0.700000 0
0.600000 0.700000 0
0.700000 0.700000 0
0.800000 0.700000 0
0.900000 0.700000 0
1.000000 0.700000 0
1.100000 0.700000 0
1.200000 0.700000 0
1.300000 0.700000 0
1.400000 0.700000 0
1.500000 0.700000 0
1.600000 0.700000 0
1.700000 0.700000 0
1.800000 0.700000 0
1.900000 0.700000 0
2.000000 0.700000 0
0.000000 0.800000 0
0.100000 0.800000 0
0.200000 0.800000 0
0.300000 0.800000 0
0.400000 0.800000 0
0.500000 0.800000 0
0.600000 0.800000 0
0.700000 0.800000 0
0.800000 0.800000 0
0.900000 0.800000 0
1.000000 0.800000 0
1.100000 0.800000 0
1.200000 0.800000 0
1.300000 0.800000 0
1.400000 0.800000 0
1.500000 0.800000 0
1.600000 0.800000 0
1.700000 0.800000 0
1.800000 0.800000 0
1.900000 0.800000 0
2.000000 0.800000 0
0.000000 0.900000 0
0.100000 0.900000 0
0.200000 0.900000 0
0.300000 0.900000 0
0.400000 0.900000 0
0.500000 0.900000 0
0.600000 0.900000 0
0.700000 0.900000 0
0.800000 0.900000 0
0.900000 0.900000 0
1.000000 0.900000 0
1.100000 0.900000 0
1.200000 0.900000 0
1.300000 0.900000 0
1.400000 0.900000 0
1.500000 0.900000 0
1.600000 0.900000 0
1.700000 0.900000 0
1.800000 0.900000 0
1.900000 0.900000 0
2.000000 0.900000 0
0.000000 1.000000 0
0.100000 1.000000 0
0.200000 1.000000 0
0.300000 1.000000 0
0.400000 1.000000 0
0.500000 1.000000 0
0.600000 1.000000 0
0.700000 1.000000 0
0.800000 1.000000 0
0.900000 1.000000 0
1.000000 1.000000 0
1.100000 1.000000 0
1.200000 1.000000 0
1.300000 1.000000 0
1.400000 1.000000 0
1.500000 1.000000 0
1.600000 1.000000 0
1.700000 1.000000 0
1.800000 1.000000 0
1.900000 1.000000 0
2.000000 1.000000 0
0.000000 1.100000 0
0.100000 1.100000 0
0.200000 1.100000 0
0.300000 1.100000 0
0.400000 1.100000 0
0.500000 1.100000 0
0.600000 1.100000 0
0.700000 1.100000 0
0.800000 1.100000 0
0.900000 1.100000 0
1.000000 1.100000 0
1.100000 1.100000 0
1.200000 1.100000 0
1.300000 1.100000 0
1.400000 1.100000 0
1.500000 1.100000 0
1.600000 1.100000 0
1.700000 1.100000 0
1.800000 1.100000 0
1.900000 1.100000 0
2.000000 1.100000 0
0.000000 1.200000 0
0.100000 1.200000 0
0.200000 1.200000 0
0.300000 1.200000 0
0.400000 1.200000 0
0.500000 1.200000 0
0.600000 1.200000 0
0.700000 1.200000 0
0.800000 1.200000 0
0.900000 1.200000 0
1.000000 1.200000 0
1.100000 1.200000 0
1.200000 1.200000 0
1.300000 1.200000 0
1.400000 1.200000 0
1.500000 1.200000 0
1.600000 1.200000 0
1.700000 1.200000 0
1.800000 1.200000 0
1.900000 1.200000 0
2.000000 1.200000 0
0.000000 1.300000 0
0.100000 1.300000 0
0.200000 1.300000 0
0.300000 1.300000 0
0.400000 1.300000 0
0.500000 1.300000 0
0.600000 1.300000 0
0.700000 1.300000 0
0.800000 1.300000 0
0.900000 1.300000 0
1.000000 1.300000 0
1.100000 1.300000 0
1.200000 1.300000 0
1.300000 1.300000 0
1.400000 1.300000 0
1.500000 1.300000 0
1.600000 1.300000 0
1.700000 1.300000 0
1.800000 1.300000 0
1.900000 1.300000 0
2.000000 1.300000 0
0.000000 1.400000 0
0.100000 1.400000 0
0.200000 1.400000 0
0.300000 1.400000 0
0.400000 1.400000 0
0.500000 1.400000 0
0.600000 1.400000 0
0.700000 1.400000 0
0.800000 1.400000 0
0.900000 1.400000 0
1.000000 1.400000 0
1.100000 1.400000 0
1.200000 1.400000 0
1.300000 1.400000 0
1.400000 1.400000 0
1.500000 1.400000 0
1.600000 1.400000 0
1.700000 1.400000 0
1.800000 1.400000 0
1.900000 1.400000 0
2.000000 1.400000 0
0.000000 1.500000 0
0.100000 1.500000 0
0.200000 1.500000 0
0.300000 1.500000 0
0.400000 1.500000 0
0.500000 1.500000 0
0.600000 1.500000 0
0.700000 1.500000 0
0.800000 1.500000 0
0.900000 1.500000 0
1.000000 1.500000 0
1.100000 1.500000 0
1.200000 1.500000 0
1.300000 1.500000 0
1.400000 1.500000 0
1.500000 1.500000 0
1.600000 1.500000 0
1.700000 1.500000 0
1.800000 1.500000 0
1.900000 1.500000 0
2.000000 1.500000 0
0.000000 1.600000 0
0.100000 1.600000 0
0.200000 1.600000 0
0.300000 1.600000 0
0.400000 1.600000 0
0.500000 1.600000 0
0.600000 1.600000 0
0.700000 1.600000 0
0.800000 1.600000 0
0.900000 1.600000 0
1.000000 1.600000 0
1.100000 1.600000 0
1.200000 1.600000 0
1.300000 1.600000 0
1.400000 1.600000 0
1.500000 1.600000 0
1.600000 1.600000 0
1.700000 1.600000 0
1.800000 1.600000 0
1.900000 1.600000 0
2.000000 1.600000 0
0.000000 1.700000 0
0.100000 1.700000 0
0.200000 1.700000 0
0.300000 1.700000 0
0.400000 1.700000 0
0.500000 1.700000 0
0.600000 1.700000 0
0.700000 1.700000 0
0.800000 1.700000 0
0.900000 1.700000 0
1.000000 1.700000 0
1.100000 1.700000 0
1.200000 1.700000 0
1.300000 1.700000 0
1.400000 1.700000 0
1.500000 1.700000 0
1.600000 1.700000 0
1.700000 1.700000 0
1.800000 1.700000 0
1.900000 1.700000 0
2.000000 1.700000 0
0.000000 1.800000 0
0.100000 1.800000 0
0.200000 1.800000 0
0.300000 1.800000 0
0.400000 1.800000 0
0.500000 1.800000 0
0.600000 1.800000 0
0.700000 1.800000 0
0.800000 1.800000 0
0.900000 1.800000 0
1.000000 1.800000 0
1.100000 1.800000 0
1.200000 1.800000 0
1.300000 1.800000 0
1.400000 1.800000 0
1.500000 1.800000 0
1.600000 1.800000 0
1.700000 1.800000 0
1.800000 1.800000 0
1.900000 1.800000 0
2.000000 1.800000 0
0.000000 1.900000 0
0.100000 1.900000 0
0.200000 1.900000 0
0.300000 1.900000 0
0.400000 1.900000 0
0.500000 1.900000 0
0.600000 1.900000 0
0.700000 1.900000 0
0.800000 1.900000 0
0.900000 1.900000 0
1.000000 1.900000 0
1.100000 1.900000 0
1.200000 1.900000 0
1.300000 1.900000 0
1.400000 1.900000 0
1.500000 1.900000 0
1.600000 1.900000 0
1.700000 1.900000 0
1.800000 1.900000 0
1.900000 1.900000 0
2.000000 1.900000 0
0.000000 2.000000 0
0.100000 2.000000 0
0.200000 2.000000 0
0.300000 2.000000 0
0.400000 2.000000 0
0.500000 2.000000 0
0.600000 2.000000 0
0.700000 2.000000 0
0.800000 2.000000 0
0.900000 2.000000 0
1.000000 2.000000 0
1.100000 2.000000 0
1.200000 2.000000 0
1.300000 2.000000 0
1.400000 2.000000 0
1.500000 2.000000 0
1.600000 2.000000 0
1.700000 2.000000 0
1.800000 2.000000 0
1.900000 2.000000 0
2.000000 2.000000 0
POINT_DATA 441 

VECTORS velocity float
0.000000 0.000000 0
0.000012 0.000000 0
0.000009 0.000000 0
0.000000 0.000000 0
-0.000007 0.000000 0
-0.000008 0.000000 0
-0.000005 0.000000 0
-0.000000 0.000000 0
0.000003 0.000000 0
0.000004 0.000000 0
0.000003 0.000000 0
0.000002 0.000000 0
-0.000000 0.000000 0
-0.000001 0.000000 0
-0.000001 0.000000 0
-0.000001 0.000000 0
-0.000000 0.000000 0
-0.000000 0.000000 0
-0.000000 0.000000 0
-0.000000 0.000000 0
-0.000000 0.000000 0
0.000000 0.000014 0
0.000012 0.000004 0
0.000015 -0.000006 0
0.000014 -0.000016 0
0.000014 -0.000016 0
0.000014 -0.000008 0
0.000013 0.000005 0
0.000008 0.000015 0
0.000000 0.000020 0
-0.000011 0.000019 0
-0.000023 0.000015 0
-0.000035 0.000009 0
-0.000045 0.000005 0
-0.000051 0.000002 0
-0.000056 0.000001 0
-0.000058 0.000000 0
-0.000058 0.000000 0
-0.000058 0.000000 0
-0.000058 -0.000000 0
-0.000057 -0.000000 0
-0.000057 -0.000000 0
0.000000 -0.000000 0
0.000003 -0.000015 0
0.000009 -0.000019 0
0.000016 -0.000013 0
0.000022 -0.000001 0
0.000024 0.000011 0
0.000021 0.000020 0
0.000012 0.000024 0
-0.000001 0.000023 0
-0.000015 0.000021 0
-0.000028 0.000018 0
-0.000040 0.000016 0
-0.000049 0.000013 0
-0.000055 0.000010 0
-0.000059 0.000007 0
-0.000061 0.000004 0
-0.000062 0.000002 0
-0.000062 0.000000 0
-0.000061 -0.000001 0
-0.000060 -0.000001 0
-0.000060 -0.000001 0
0.000000 -0.000007 0
0.000001 -0.000024 0
0.000014 -0.000016 0
0.000025 -0.000005 0
0.000031 0.000004 0
0.000030 0.000011 0
0.000023 0.000016 0
0.000013 0.000022 0
-0.000000 0.000028 0
-0.000015 0.000032 0
-0.000029 0.000033 0
-0.000041 0.000031 0
-0.000051 0.000025 0
-0.000058 0.000018 0
-0.000062 0.000011 0
-0.000063 0.000005 0
-0.000063 0.000001 0
-0.000062 -0.000001 0
-0.000061 -0.000002 0
-0.000060 -0.000001 0
-0.000059 -0.000001 0
0.000000 0.000000 0
0.000008 -0.000025 0
0.000021 -0.000019 0
0.000030 -0.000014 0
0.000034 -0.000008 0
0.000034 0.000002 0
0.000029 0.000016 0
0.000020 0.000032 0
0.000006 0.000046 0
-0.000012 0.000054 0
-0.000030 0.000054 0
-0.000045 0.000046 0
-0.000057 0.000034 0
-0.000063 0.000022 0
-0.000066 0.000011 0
-0.000066 0.000003 0
-0.000064 -0.000001 0
-0.000062 -0.000003 0
-0.000060 -0.000003 0
-0.000058 -0.000002 0
-0.000058 -0.000001 0
0.000000 0.000005 0
0.000012 -0.000033 0
0.000022 -0.000034 0
0.000031 -0.000028 0
0.000039 -0.000016 0
0.000043 0.000003 0
0.000041 0.000028 0
0.000031 0.000051 0
0.000013 0.000069 0
-0.000010 0.000076 0
-0.000033 0.000072 0
-0.000052 0.000059 0
-0.000064 0.000041 0
-0.000070 0.000024 0
-0.000070 0.000011 0
-0.000068 0.000001 0
-0.000064 -0.000004 0
-0.000060 -0.000005 0
-0.000057 -0.000005 0
-0.000056 -0.000003 0
-0.000055 -0.000001 0
0.000000 0.000000 0
0.000010 -0.000050 0
0.000022 -0.000049 0
0.000035 -0.000037 0
0.000047 -0.000018 0
0.000054 0.000008 0
0.000053 0.000038 0
0.000041 0.000067 0
0.000019 0.000089 0
-0.000009 0.000098 0
-0.000037 0.000092 0
-0.000058 0.000074 0
-0.000071 0.000050 0
-0.000074 0.000027 0
-0.000072 0.000009 0
-0.000067 -0.000002 0
-0.000062 -0.000008 0
-0.000057 -0.000009 0
-0.000053 -0.000007 0
-0.000051 -0.000004 0
-0.000051 -0.000002 0
0.000000 -0.000003 0
0.000009 -0.000063 0
0.000024 -0.000059 0
0.000039 -0.000045 0
0.000052 -0.000024 0
0.000060 0.000004 0
0.000060 0.000041 0
0.000048 0.000080 0
0.000025 0.000113 0
-0.000007 0.000127 0
-0.000039 0.000119 0
-0.000062 0.000092 0
-0.000074 0.000059 0
-0.000076 0.000028 0
-0.000071 0.000005 0
-0.000064 -0.000008 0
-0.000057 -0.000014 0
-0.000051 -0.000014 0
-0.000047 -0.000011 0
-0.000045 -0.000005 0
-0.000044 -0.000002 0
0.000000 -0.000001 0
0.000010 -0.000074 0
0.000024 -0.000071 0
0.000037 -0.000058 0
0.000050 -0.000038 0
0.000059 -0.000004 0
0.000061 0.000043 0
0.000052 0.000097 0
0.000028 0.000143 0
-0.000005 0.000163 0
-0.000038 0.000149 0
-0.000061 0.000111 0
-0.000071 0.000065 0
-0.000071 0.000025 0
-0.000064 -0.000002 0
-0.000056 -0.000017 0
-0.000048 -0.000021 0
-0.000042 -0.000020 0
-0.000038 -0.000014 0
-0.000035 -0.000006 0
-0.000035 -0.000002 0
0.000000 0.000001 0
0.000009 -0.000084 0
0.000019 -0.000084 0
0.000029 -0.000073 0
0.000039 -0.000050 0
0.000049 -0.000010 0
0.000052 0.000047 0
0.000046 0.000114 0
0.000027 0.000172 0
-0.000002 0.000196 0
-0.000031 0.000177 0
-0.000050 0.000126 0
-0.000057 0.000068 0
-0.000055 0.000020 0
-0.000049 -0.000010 0
-0.000041 -0.000025 0
-0.000034 -0.000028 0
-0.000029 -0.000025 0
-0.000025 -0.000017 0
-0.000023 -0.000007 0
-0.000023 -0.000002 0
0.000000 -0.000000 0
0.000005 -0.000093 0
0.000010 -0.000094 0
0.000016 -0.000082 0
0.000022 -0.000057 0
0.000028 -0.000014 0
0.000031 0.000049 0
0.000028 0.000125 0
0.000017 0.000191 0
-0.000000 0.000219 0
-0.000017 0.000196 0
-0.000028 0.000136 0
-0.000031 0.000069 0
-0.000029 0.000016 0
-0.000025 -0.000016 0
-0.000020 -0.000031 0
-0.000016 -0.000033 0
-0.000013 -0.000028 0
-0.000011 -0.000019 0
-0.000010 -0.000008 0
-0.000010 -0.000002 0
0.000000 -0.000001 0
-0.000000 -0.000097 0
-0.000001 -0.000096 0
-0.000000 -0.000084 0
-0.000000 -0.000059 0
0.000000 -0.000016 0
0.000000 0.000048 0
0.000001 0.000127 0
0.000001 0.000197 0
0.000002 0.000228 0
0.000003 0.000203 0
0.000004 0.000140 0
0.000005 0.000070 0
0.000005 0.000014 0
0.000005 -0.000019 0
0.000005 -0.000033 0
0.000005 -0.000035 0
0.000005 -0.000030 0
0.000006 -0.000020 0
0.000006 -0.000009 0
0.000006 -0.000002 0
0.000000 -0.000000 0
-0.000005 -0.000093 0
-0.000010 -0.000093 0
-0.000017 -0.000081 0
-0.000023 -0.000057 0
-0.000028 -0.000015 0
-0.000030 0.000047 0
-0.000026 0.000123 0
-0.000014 0.000189 0
0.000005 0.000217 0
0.000023 0.000195 0
0.000035 0.000136 0
0.000039 0.000069 0
0.000038 0.000016 0
0.000034 -0.000017 0
0.000030 -0.000031 0
0.000026 -0.000034 0
0.000024 -0.000029 0
0.000022 -0.000020 0
0.000021 -0.000008 0
0.000021 -0.000002 0
0.000000 0.000000 0
-0.000008 -0.000085 0
-0.000019 -0.000085 0
-0.000030 -0.000072 0
-0.000040 -0.000049 0
-0.000048 -0.000010 0
-0.000051 0.000046 0
-0.000043 0.000112 0
-0.000023 0.000168 0
0.000007 0.000191 0
0.000037 0.000173 0
0.000057 0.000124 0
0.000065 0.000066 0
0.000064 0.000019 0
0.000058 -0.000011 0
0.000051 -0.000025 0
0.000045 -0.000029 0
0.000040 -0.000025 0
0.000037 -0.000018 0
0.000035 -0.000008 0
0.000035 -0.000002 0
0.000000 -0.000000 0
-0.000011 -0.000074 0
-0.000024 -0.000073 0
-0.000038 -0.000060 0
-0.000049 -0.000038 0
-0.000058 -0.000003 0
-0.000060 0.000043 0
-0.000049 0.000095 0
-0.000025 0.000139 0
0.000009 0.000158 0
0.000043 0.000144 0
0.000067 0.000107 0
0.000079 0.000062 0
0.000079 0.000023 0
0.000074 -0.000004 0
0.000067 -0.000018 0
0.000059 -0.000022 0
0.000054 -0.000021 0
0.000050 -0.000015 0
0.000047 -0.000006 0
0.000047 -0.000002 0
0.000000 -0.000000 0
-0.000012 -0.000061 0
-0.000026 -0.000059 0
-0.000040 -0.000047 0
-0.000051 -0.000028 0
-0.000059 0.000001 0
-0.000058 0.000038 0
-0.000047 0.000077 0
-0.000023 0.000109 0
0.000010 0.000123 0
0.000043 0.000114 0
0.000068 0.000088 0
0.000082 0.000054 0
0.000085 0.000024 0
0.000082 0.000002 0
0.000076 -0.000011 0
0.000069 -0.000016 0
0.000064 -0.000015 0
0.000060 -0.000011 0
0.000057 -0.000005 0
0.000057 -0.000002 0
0.000000 -0.000000 0
-0.000012 -0.000048 0
-0.000026 -0.000045 0
-0.000039 -0.000035 0
-0.000049 -0.000019 0
-0.000054 0.000003 0
-0.000052 0.000031 0
-0.000040 0.000059 0
-0.000018 0.000082 0
0.000012 0.000092 0
0.000041 0.000086 0
0.000064 0.000068 0
0.000079 0.000045 0
0.000085 0.000023 0
0.000084 0.000005 0
0.000080 -0.000005 0
0.000075 -0.000010 0
0.000071 -0.000011 0
0.000067 -0.000008 0
0.000065 -0.000004 0
0.000065 -0.000001 0
0.000000 0.000000 0
-0.000012 -0.000035 0
-0.000025 -0.000033 0
-0.000036 -0.000025 0
-0.000045 -0.000013 0
-0.000048 0.000004 0
-0.000045 0.000023 0
-0.000033 0.000043 0
-0.000013 0.000058 0
0.000013 0.000065 0
0.000038 0.000061 0
0.000060 0.000050 0
0.000074 0.000034 0
0.000082 0.000019 0
0.000084 0.000006 0
0.000082 -0.000002 0
0.000079 -0.000006 0
0.000075 -0.000007 0
0.000072 -0.000006 0
0.000071 -0.000003 0
0.000070 -0.000001 0
0.000000 -0.000000 0
-0.000012 -0.000023 0
-0.000024 -0.000021 0
-0.000034 -0.000016 0
-0.000041 -0.000008 0
-0.000043 0.000003 0
-0.000039 0.000016 0
-0.000027 0.000028 0
-0.000009 0.000037 0
0.000013 0.000041 0
0.000036 0.000039 0
0.000056 0.000032 0
0.000071 0.000023 0
0.000079 0.000013 0
0.000083 0.000005 0
0.000083 -0.000001 0
0.000081 -0.000004 0
0.000078 -0.000004 0
0.000076 -0.000004 0
0.000074 -0.000002 0
0.000074 -0.000001 0
0.000000 -0.000000 0
-0.000011 -0.000011 0
-0.000023 -0.000010 0
-0.000032 -0.000007 0
-0.000038 -0.000003 0
-0.000040 0.000002 0
-0.000035 0.000008 0
-0.000024 0.000013 0
-0.000008 0.000017 0
0.000013 0.000019 0
0.000033 0.000019 0
0.000052 0.000015 0
0.000066 0.000011 0
0.000075 0.000006 0
0.000079 0.000003 0
0.000079 -0.000000 0
0.000078 -0.000002 0
0.000076 -0.000002 0
0.000074 -0.000002 0
0.000072 -0.000001 0
0.000072 -0.000000 0
0.000000 0.000000 0
0.000000 0.000000 0
0.000000 0.000000 0
-0.000000 0.000000 0
-0.000000 0.000000 0
-0.000000 0.000000 0
-0.000000 0.000000 0
-0.000000 0.000000 0
-0.000000 0.000000 0
0.000000 0.000000 0
0.000000 0.000000 0
0.000000 0.000000 0
0.000000 0.000000 0
0.000000 0.000000 0
0.000000 0.000000 0
0.000000 0.000000 0
0.000000 0.000000 0
0.000000 0.000000 0
0.000000 0.000000 0
0.000000 0.000000 0
0.000000 0.000000 0

CELL_DATA 400 
SCALARS pressure float 1 
LOOKUP_TABLE default 
0.242655
0.242607
0.242572
0.242571
0.242598
0.242631
0.242652
0.242653
0.242641
0.242623
0.242610
0.242604
0.242605
0.242610
0.242616
0.242619
0.242621
0.242622
0.242622
0.242622
0.219600
0.219598
0.219615
0.219635
0.219644
0.219638
0.219624
0.219610
0.219602
0.219602
0.219608
0.219614
0.219619
0.219622
0.219622
0.219621
0.219621
0.219620
0.219621
0.219621
0.196601
0.196634
0.196648
0.196639
0.196617
0.196597
0.196589
0.196594
0.196606
0.196618
0.196626
0.196627
0.196625
0.196621
0.196619
0.196618
0.196618
0.196619
0.196620
0.196621
0.173629
0.173640
0.173628
0.173607
0.173592
0.173592
0.173602
0.173616
0.173626
0.173629
0.173627
0.173622
0.173618
0.173616
0.173616
0.173617
0.173619
0.173620
0.173621
0.173621
0.150628
0.150618
0.150609
0.150607
0.150610
0.150617
0.150623
0.150624
0.150622
0.150619
0.150616
0.150614
0.150615
0.150616
0.150618
0.150619
0.150620
0.150621
0.150621
0.150622
0.127610
0.127611
0.127620
0.127627
0.127629
0.127624
0.127617
0.127612
0.127609
0.127611
0.127614
0.127617
0.127619
0.127620
0.127620
0.127620
0.127620
0.127621
0.127621
0.127622
0.104609
0.104622
0.104631
0.104630
0.104622
0.104613
0.104607
0.104607
0.104610
0.104615
0.104619
0.104621
0.104621
0.104620
0.104620
0.104620
0.104620
0.104620
0.104621
0.104622
0.081619
0.081626
0.081625
0.081620
0.081614
0.081612
0.081612
0.081615
0.081618
0.081619
0.081620
0.081620
0.081619
0.081619
0.081619
0.081620
0.081620
0.081621
0.081621
0.081622
0.058621
0.058619
0.058618
0.058619
0.058620
0.058621
0.058621
0.058620
0.058618
0.058617
0.058617
0.058618
0.058619
0.058620
0.058620
0.058621
0.058621
0.058622
0.058622
0.058622
0.035618
0.035617
0.035621
0.035625
0.035627
0.035625
0.035621
0.035618
0.035617
0.035617
0.035618
0.035620
0.035621
0.035622
0.035622
0.035622
0.035622
0.035622
0.035622
0.035622
0.012619
0.012621
0.012625
0.012627
0.012626
0.012623
0.012620
0.012619
0.012619
0.012620
0.012622
0.012622
0.012623
0.012623
0.012623
0.012622
0.012622
0.012622
0.012622
0.012622
-0.010377
-0.010376
-0.010376
-0.010376
-0.010376
-0.010376
-0.010376
-0.010376
-0.010376
-0.010376
-0.010376
-0.010376
-0.010376
-0.010376
-0.010377
-0.010377
-0.010377
-0.010377
-0.010377
-0.010377
-0.033375
-0.033377
-0.033377
-0.033376
-0.033374
-0.033373
-0.033372
-0.033373
-0.033374
-0.033374
-0.033375
-0.033375
-0.033375
-0.033375
-0.033376
-0.033376
-0.033376
-0.033377
-0.033377
-0.033377
-0.056375
-0.056377
-0.056376
-0.056373
-0.056372
-0.056371
-0.056371
-0.056372
-0.056373
-0.056373
-0.056373
-0.056374
-0.056374
-0.056374
-0.056375
-0.056375
-0.056376
-0.056376
-0.056377
-0.056377
-0.079374
-0.079375
-0.079374
-0.079372
-0.079371
-0.079371
-0.079371
-0.079371
-0.079371
-0.079372
-0.079372
-0.079372
-0.079373
-0.079373
-0.079374
-0.079375
-0.079375
-0.079376
-0.079376
-0.079377
-0.102372
-0.102373
-0.102373
-0.102373
-0.102372
-0.102371
-0.102370
-0.102370
-0.102370
-0.102370
-0.102371
-0.102372
-0.102372
-0.102373
-0.102373
-0.102374
-0.102375
-0.102375
-0.102376
-0.102377
-0.125372
-0.125373
-0.125373
-0.125373
-0.125371
-0.125370
-0.125369
-0.125369
-0.125369
-0.125370
-0.125371
-0.125371
-0.125372
-0.125372
-0.125373
-0.125374
-0.125374
-0.125375
-0.125376
-0.125377
-0.148372
-0.148372
-0.148372
-0.148372
-0.148371
-0.148370
-0.148369
-0.148369
-0.148369
-0.148370
-0.148370
-0.148371
-0.148371
-0.148372
-0.148373
-0.148373
-0.148374
-0.148375
-0.148376
-0.148376
-0.171371
-0.171372
-0.171372
-0.171371
-0.171371
-0.171370
-0.171369
-0.171369
-0.171369
-0.171369
-0.171370
-0.171370
-0.171371
-0.171372
-0.171372
-0.171373
-0.171374
-0.171375
-0.171376
-0.171376
-0.194371
-0.194371
-0.194371
-0.194371
-0.194371
-0.194370
-0.194369
-0.194369
-0.194369
-0.194369
-0.194369
-0.194370
-0.194371
-0.194371
-0.194372
-0.194373
-0.194374
-0.194375
-0.194376
-0.194376

SCALARS temperature float 1 
LOOKUP_TABLE default 
0.000007
0.000059
0.000162
0.000311
0.000495
0.000697
0.000892
0.001054
0.001159
0.001192
0.001151
0.001049
0.000907
0.000749
0.000595
0.000461
0.000353
0.000275
0.000225
0.000200
0.000008
0.000069
0.000189
0.000363
0.000580
0.000819
0.001051
0.001244
0.001368
0.001404
0.001353
0.001228
0.001057
0.000867
0.000685
0.000528
0.000403
0.000312
0.000254
0.000226
0.000010
0.000090
0.000247
0.000478
0.000767
0.001089
0.001405
0.001667
0.001834
0.001878
0.001799
0.001621
0.001381
0.001121
0.000876
0.000667
0.000503
0.000387
0.000313
0.000277
0.000015
0.000125
0.000347
0.000675
0.001093
0.001566
0.002034
0.002426
0.002672
0.002728
0.002595
0.002311
0.001941
0.001552
0.001193
0.000894
0.000666
0.000505
0.000405
0.000357
0.000021
0.000179
0.000500
0.000983
0.001610
0.002332
0.003061
0.003678
0.004062
0.004134
0.003895
0.003420
0.002823
0.002214
0.001669
0.001228
0.000899
0.000673
0.000534
0.000468
0.000030
0.000256
0.000718
0.001428
0.002371
0.003486
0.004641
0.005633
0.006248
0.006338
0.005907
0.005099
0.004122
0.003161
0.002332
0.001681
0.001209
0.000891
0.000699
0.000609
0.000042
0.000355
0.001004
0.002022
0.003413
0.005109
0.006920
0.008514
0.009503
0.009610
0.008844
0.007484
0.005908
0.004419
0.003183
0.002246
0.001585
0.001151
0.000893
0.000774
0.000055
0.000470
0.001343
0.002742
0.004711
0.007197
0.009949
0.012447
0.014010
0.014129
0.012822
0.010611
0.008159
0.005943
0.004177
0.002886
0.002001
0.001433
0.001101
0.000949
0.000069
0.000588
0.001694
0.003505
0.006129
0.009561
0.013508
0.017214
0.019567
0.019687
0.017610
0.014243
0.010665
0.007571
0.005202
0.003525
0.002407
0.001703
0.001298
0.001115
0.000080
0.000687
0.001993
0.004167
0.007393
0.011740
0.016908
0.021909
0.025136
0.025252
0.022309
0.017689
0.012952
0.009003
0.006075
0.004058
0.002741
0.001923
0.001458
0.001248
0.000087
0.000745
0.002169
0.004559
0.008151
0.013076
0.019041
0.024920
0.028752
0.028867
0.025326
0.019855
0.014357
0.009866
0.006596
0.004376
0.002940
0.002056
0.001554
0.001329
0.000087
0.000747
0.002175
0.004568
0.008156
0.013066
0.019004
0.024850
0.028663
0.028787
0.025279
0.019848
0.014378
0.009900
0.006633
0.004409
0.002967
0.002078
0.001574
0.001346
0.000081
0.000696
0.002015
0.004200
0.007424
0.011746
0.016859
0.021795
0.024988
0.025127
0.022256
0.017720
0.013043
0.009118
0.006190
0.004159
0.002824
0.001992
0.001515
0.001300
0.000071
0.000605
0.001738
0.003579
0.006225
0.009655
0.013573
0.017239
0.019576
0.019726
0.017715
0.014418
0.010884
0.007797
0.005408
0.003699
0.002549
0.001818
0.001394
0.001201
0.000058
0.000498
0.001417
0.002875
0.004905
0.007440
0.010222
0.012736
0.014318
0.014468
0.013197
0.011012
0.008556
0.006307
0.004489
0.003140
0.002203
0.001594
0.001235
0.001070
0.000046
0.000395
0.001112
0.002224
0.003724
0.005529
0.007437
0.009108
0.010152
0.010292
0.009530
0.008143
0.006507
0.004936
0.003608
0.002584
0.001849
0.001360
0.001066
0.000929
0.000036
0.000308
0.000862
0.001701
0.002801
0.004084
0.005398
0.006523
0.007225
0.007349
0.006895
0.006014
0.004925
0.003833
0.002872
0.002103
0.001534
0.001146
0.000909
0.000797
0.000029
0.000245
0.000679
0.001326
0.002156
0.003100
0.004045
0.004840
0.005340
0.005449
0.005166
0.004579
0.003825
0.003040
0.002325
0.001735
0.001288
0.000975
0.000781
0.000689
0.000024
0.000204
0.000563
0.001091
0.001758
0.002505
0.003242
0.003856
0.004245
0.004343
0.004148
0.003718
0.003149
0.002540
0.001972
0.001492
0.001121
0.000858
0.000693
0.000613
0.000022
0.000184
0.000507
0.000979
0.001571
0.002228
0.002872
0.003407
0.003747
0.003839
0.003681
0.003318
0.002830
0.002301
0.001800
0.001372
0.001038
0.000799
0.000648
0.000575


SCALARS Species_1 float 1 
LOOKUP_TABLE default 
0.000570
0.001715
0.002876
0.004055
0.005248
0.006440
0.007607
0.008719
0.009741
0.010638
0.011383
0.011956
0.012353
0.012581
0.012666
0.012640
0.012547
0.012429
0.012326
0.012267
0.000577
0.001737
0.002913
0.004106
0.005313
0.006519
0.007698
0.008822
0.009854
0.010760
0.011513
0.012092
0.012494
0.012726
0.012813
0.012788
0.012696
0.012579
0.012476
0.012417
0.000590
0.001777
0.002978
0.004198
0.005430
0.006660
0.007864
0.009009
0.010061
0.010985
0.011752
0.012343
0.012753
0.012990
0.013080
0.013056
0.012964
0.012845
0.012742
0.012682
0.000607
0.001827
0.003062
0.004315
0.005580
0.006843
0.008077
0.009251
0.010330
0.011277
0.012063
0.012668
0.013088
0.013332
0.013424
0.013401
0.013307
0.013187
0.013082
0.013021
0.000625
0.001880
0.003151
0.004439
0.005739
0.007036
0.008303
0.009509
0.010615
0.011586
0.012392
0.013013
0.013444
0.013694
0.013790
0.013767
0.013672
0.013549
0.013442
0.013380
0.000641
0.001928
0.003230
0.004550
0.005881
0.007208
0.008504
0.009737
0.010868
0.011861
0.012684
0.013319
0.013759
0.014016
0.014114
0.014091
0.013994
0.013870
0.013761
0.013698
0.000652
0.001961
0.003285
0.004627
0.005979
0.007327
0.008643
0.009893
0.011041
0.012048
0.012884
0.013528
0.013974
0.014235
0.014335
0.014313
0.014216
0.014091
0.013981
0.013917
0.000656
0.001973
0.003304
0.004652
0.006011
0.007365
0.008686
0.009942
0.011094
0.012105
0.012943
0.013589
0.014038
0.014300
0.014401
0.014380
0.014283
0.014159
0.014049
0.013986
0.000651
0.001957
0.003277
0.004614
0.005962
0.007303
0.008612
0.009856
0.010997
0.011998
0.012828
0.013469
0.013914
0.014174
0.014275
0.014255
0.014161
0.014038
0.013931
0.013869
0.000636
0.001912
0.003201
0.004507
0.005822
0.007132
0.008409
0.009623
0.010736
0.011713
0.012523
0.013148
0.013583
0.013838
0.013938
0.013920
0.013829
0.013711
0.013607
0.013547
0.000611
0.001837
0.003076
0.004331
0.005594
0.006852
0.008079
0.009245
0.010314
0.011252
0.012030
0.012631
0.013049
0.013295
0.013392
0.013377
0.013291
0.013179
0.013080
0.013023
0.000577
0.001737
0.002908
0.004093
0.005287
0.006476
0.007636
0.008738
0.009748
0.010634
0.011370
0.011939
0.012335
0.012568
0.012662
0.012649
0.012570
0.012465
0.012373
0.012319
0.000537
0.001615
0.002705
0.003808
0.004919
0.006025
0.007104
0.008129
0.009069
0.009894
0.010580
0.011110
0.011480
0.011699
0.011788
0.011778
0.011706
0.011610
0.011525
0.011475
0.000492
0.001482
0.002481
0.003493
0.004512
0.005527
0.006517
0.007458
0.008321
0.009079
0.009709
0.010196
0.010538
0.010741
0.010824
0.010817
0.010752
0.010666
0.010588
0.010544
0.000447
0.001344
0.002251
0.003169
0.004094
0.005015
0.005914
0.006768
0.007552
0.008241
0.008814
0.009258
0.009570
0.009756
0.009834
0.009829
0.009773
0.009695
0.009626
0.009586
0.000403
0.001211
0.002029
0.002857
0.003692
0.004523
0.005334
0.006105
0.006814
0.007436
0.007955
0.008358
0.008641
0.008811
0.008884
0.008881
0.008831
0.008763
0.008701
0.008665
0.000363
0.001093
0.001831
0.002579
0.003333
0.004084
0.004817
0.005514
0.006155
0.006719
0.007189
0.007555
0.007813
0.007969
0.008036
0.008035
0.007992
0.007931
0.007876
0.007844
0.000331
0.000997
0.001670
0.002353
0.003041
0.003727
0.004397
0.005034
0.005620
0.006136
0.006567
0.006902
0.007140
0.007284
0.007347
0.007348
0.007309
0.007254
0.007205
0.007176
0.000309
0.000929
0.001557
0.002193
0.002835
0.003475
0.004101
0.004696
0.005243
0.005726
0.006129
0.006443
0.006666
0.006801
0.006861
0.006863
0.006828
0.006778
0.006732
0.006705
0.000297
0.000894
0.001498
0.002111
0.002729
0.003346
0.003948
0.004521
0.005049
0.005514
0.005903
0.006206
0.006421
0.006553
0.006611
0.006613
0.006580
0.006532
0.006488
0.006462


SCALARS Species_2 float 1 
LOOKUP_TABLE default 
0.000301
0.000889
0.001432
0.001904
0.002286
0.002563
0.002732
0.002794
0.002759
0.002641
0.002457
0.002228
0.001974
0.001713
0.001463
0.001236
0.001043
0.000892
0.000789
0.000736
0.000321
0.000946
0.001523
0.002025
0.002431
0.002726
0.002906
0.002972
0.002935
0.002809
0.002614
0.002371
0.002101
0.001825
0.001558
0.001317
0.001112
0.000952
0.000842
0.000786
0.000358
0.001056
0.001701
0.002261
0.002714
0.003043
0.003243
0.003317
0.003275
0.003134
0.002917
0.002646
0.002345
0.002037
0.001740
0.001471
0.001242
0.001064
0.000942
0.000879