# vtk DataFile Version 2.0
generated by CFD-lab course output (written by Tobias Neckel) 
ASCII

DATASET STRUCTURED_GRID
DIMENSIONS  21 21 1 
POINTS 441 float

0.000000 0.000000 0
0.100000 0.000000 0
0.200000 0.000000 0
0.300000 0.000000 0
0.400000 0.000000 0
0.500000 0.000000 0
0.600000 0.000000 0
0.700000 0.000000 0
0.800000 0.000000 0
0.900000 0.000000 0
1.000000 0.000000 0
1.100000 0.000000 0
1.200000 0.000000 0
1.300000 0.000000 0
1.400000 0.000000 0
1.500000 0.000000 0
1.600000 0.000000 0
1.700000 0.000000 0
1.800000 0.000000 0
1.900000 0.000000 0
2.000000 0.000000 0
0.000000 0.100000 0
0.100000 0.100000 0
0.200000 0.100000 0
0.300000 0.100000 0
0.400000 0.100000 0
0.500000 0.100000 0
0.600000 0.100000 0
0.700000 0.100000 0
0.800000 0.100000 0
0.900000 0.100000 0
1.000000 0.100000 0
1.100000 0.100000 0
1.200000 0.100000 0
1.300000 0.100000 0
1.400000 0.100000 0
1.500000 0.100000 0
1.600000 0.100000 0
1.700000 0.100000 0
1.800000 0.100000 0
1.900000 0.100000 0
2.000000 0.100000 0
0.000000 0.200000 0
0.100000 0.200000 0
0.200000 0.200000 0
0.300000 0.200000 0
0.400000 0.200000 0
0.500000 0.200000 0
0.600000 0.200000 0
0.700000 0.200000 0
0.800000 0.200000 0
0.900000 0.200000 0
1.000000 0.200000 0
1.100000 0.200000 0
1.200000 0.200000 0
1.300000 0.200000 0
1.400000 0.200000 0
1.500000 0.200000 0
1.600000 0.200000 0
1.700000 0.200000 0
1.800000 0.200000 0
1.900000 0.200000 0
2.000000 0.200000 0
0.000000 0.300000 0
0.100000 0.300000 0
0.200000 0.300000 0
0.300000 0.300000 0
0.400000 0.300000 0
0.500000 0.300000 0
0.600000 0.300000 0
0.700000 0.300000 0
0.800000 0.300000 0
0.900000 0.300000 0
1.000000 0.300000 0
1.100000 0.300000 0
1.200000 0.300000 0
1.300000 0.300000 0
1.400000 0.300000 0
1.500000 0.300000 0
1.600000 0.300000 0
1.700000 0.300000 0
1.800000 0.300000 0
1.900000 0.300000 0
2.000000 0.300000 0
0.000000 0.400000 0
0.100000 0.400000 0
0.200000 0.400000 0
0.300000 0.400000 0
0.400000 0.400000 0
0.500000 0.400000 0
0.600000 0.400000 0
0.700000 0.400000 0
0.800000 0.400000 0
0.900000 0.400000 0
1.000000 0.400000 0
1.100000 0.400000 0
1.200000 0.400000 0
1.300000 0.400000 0
1.400000 0.400000 0
1.500000 0.400000 0
1.600000 0.400000 0
1.700000 0.400000 0
1.800000 0.400000 0
1.900000 0.400000 0
2.000000 0.400000 0
0.000000 0.500000 0
0.100000 0.500000 0
0.200000 0.500000 0
0.300000 0.500000 0
0.400000 0.500000 0
0.500000 0.500000 0
0.600000 0.500000 0
0.700000 0.500000 0
0.800000 0.500000 0
0.900000 0.500000 0
1.000000 0.500000 0
1.100000 0.500000 0
1.200000 0.500000 0
1.300000 0.500000 0
1.400000 0.500000 0
1.500000 0.500000 0
1.600000 0.500000 0
1.700000 0.500000 0
1.800000 0.500000 0
1.900000 0.500000 0
2.000000 0.500000 0
0.000000 0.600000 0
0.100000 0.600000 0
0.200000 0.600000 0
0.300000 0.600000 0
0.400000 0.600000 0
0.500000 0.600000 0
0.600000 0.600000 0
0.700000 0.600000 0
0.800000 0.600000 0
0.900000 0.600000 0
1.000000 0.600000 0
1.100000 0.600000 0
1.200000 0.600000 0
1.300000 0.600000 0
1.400000 0.600000 0
1.500000 0.600000 0
1.600000 0.600000 0
1.700000 0.600000 0
1.800000 0.600000 0
1.900000 0.600000 0
2.000000 0.600000 0
0.000000 0.700000 0
0.100000 0.700000 0
0.200000 0.700000 0
0.300000 0.700000 0
0.400000 0.700000 0
0.500000 0.700000 0
0.600000 0.700000 0
0.700000 0.700000 0
0.800000 0.700000 0
0.900000 0.700000 0
1.000000 0.700000 0
1.100000 0.700000 0
1.200000 0.700000 0
1.300000 0.700000 0
1.400000 0.700000 0
1.500000 0.700000 0
1.600000 0.700000 0
1.700000 0.700000 0
1.800000 0.700000 0
1.900000 0.700000 0
2.000000 0.700000 0
0.000000 0.800000 0
0.100000 0.800000 0
0.200000 0.800000 0
0.300000 0.800000 0
0.400000 0.800000 0
0.500000 0.800000 0
0.600000 0.800000 0
0.700000 0.800000 0
0.800000 0.800000 0
0.900000 0.800000 0
1.000000 0.800000 0
1.100000 0.800000 0
1.200000 0.800000 0
1.300000 0.800000 0
1.400000 0.800000 0
1.500000 0.800000 0
1.600000 0.800000 0
1.700000 0.800000 0
1.800000 0.800000 0
1.900000 0.800000 0
2.000000 0.800000 0
0.000000 0.900000 0
0.100000 0.900000 0
0.200000 0.900000 0
0.300000 0.900000 0
0.400000 0.900000 0
0.500000 0.900000 0
0.600000 0.900000 0
0.700000 0.900000 0
0.800000 0.900000 0
0.900000 0.900000 0
1.000000 0.900000 0
1.100000 0.900000 0
1.200000 0.900000 0
1.300000 0.900000 0
1.400000 0.900000 0
1.500000 0.900000 0
1.600000 0.900000 0
1.700000 0.900000 0
1.800000 0.900000 0
1.900000 0.900000 0
2.000000 0.900000 0
0.000000 1.000000 0
0.100000 1.000000 0
0.200000 1.000000 0
0.300000 1.000000 0
0.400000 1.000000 0
0.500000 1.000000 0
0.600000 1.000000 0
0.700000 1.000000 0
0.800000 1.000000 0
0.900000 1.000000 0
1.000000 1.000000 0
1.100000 1.000000 0
1.200000 1.000000 0
1.300000 1.000000 0
1.400000 1.000000 0
1.500000 1.000000 0
1.600000 1.000000 0
1.700000 1.000000 0
1.800000 1.000000 0
1.900000 1.000000 0
2.000000 1.000000 0
0.000000 1.100000 0
0.100000 1.100000 0
0.200000 1.100000 0
0.300000 1.100000 0
0.400000 1.100000 0
0.500000 1.100000 0
0.600000 1.100000 0
0.700000 1.100000 0
0.800000 1.100000 0
0.900000 1.100000 0
1.000000 1.100000 0
1.100000 1.100000 0
1.200000 1.100000 0
1.300000 1.100000 0
1.400000 1.100000 0
1.500000 1.100000 0
1.600000 1.100000 0
1.700000 1.100000 0
1.800000 1.100000 0
1.900000 1.100000 0
2.000000 1.100000 0
0.000000 1.200000 0
0.100000 1.200000 0
0.200000 1.200000 0
0.300000 1.200000 0
0.400000 1.200000 0
0.500000 1.200000 0
0.600000 1.200000 0
0.700000 1.200000 0
0.800000 1.200000 0
0.900000 1.200000 0
1.000000 1.200000 0
1.100000 1.200000 0
1.200000 1.200000 0
1.300000 1.200000 0
1.400000 1.200000 0
1.500000 1.200000 0
1.600000 1.200000 0
1.700000 1.200000 0
1.800000 1.200000 0
1.900000 1.200000 0
2.000000 1.200000 0
0.000000 1.300000 0
0.100000 1.300000 0
0.200000 1.300000 0
0.300000 1.300000 0
0.400000 1.300000 0
0.500000 1.300000 0
0.600000 1.300000 0
0.700000 1.300000 0
0.800000 1.300000 0
0.900000 1.300000 0
1.000000 1.300000 0
1.100000 1.300000 0
1.200000 1.300000 0
1.300000 1.300000 0
1.400000 1.300000 0
1.500000 1.300000 0
1.600000 1.300000 0
1.700000 1.300000 0
1.800000 1.300000 0
1.900000 1.300000 0
2.000000 1.300000 0
0.000000 1.400000 0
0.100000 1.400000 0
0.200000 1.400000 0
0.300000 1.400000 0
0.400000 1.400000 0
0.500000 1.400000 0
0.600000 1.400000 0
0.700000 1.400000 0
0.800000 1.400000 0
0.900000 1.400000 0
1.000000 1.400000 0
1.100000 1.400000 0
1.200000 1.400000 0
1.300000 1.400000 0
1.400000 1.400000 0
1.500000 1.400000 0
1.600000 1.400000 0
1.700000 1.400000 0
1.800000 1.400000 0
1.900000 1.400000 0
2.000000 1.400000 0
0.000000 1.500000 0
0.100000 1.500000 0
0.200000 1.500000 0
0.300000 1.500000 0
0.400000 1.500000 0
0.500000 1.500000 0
0.600000 1.500000 0
0.700000 1.500000 0
0.800000 1.500000 0
0.900000 1.500000 0
1.000000 1.500000 0
1.100000 1.500000 0
1.200000 1.500000 0
1.300000 1.500000 0
1.400000 1.500000 0
1.500000 1.500000 0
1.600000 1.500000 0
1.700000 1.500000 0
1.800000 1.500000 0
1.900000 1.500000 0
2.000000 1.500000 0
0.000000 1.600000 0
0.100000 1.600000 0
0.200000 1.600000 0
0.300000 1.600000 0
0.400000 1.600000 0
0.500000 1.600000 0
0.600000 1.600000 0
0.700000 1.600000 0
0.800000 1.600000 0
0.900000 1.600000 0
1.000000 1.600000 0
1.100000 1.600000 0
1.200000 1.600000 0
1.300000 1.600000 0
1.400000 1.600000 0
1.500000 1.600000 0
1.600000 1.600000 0
1.700000 1.600000 0
1.800000 1.600000 0
1.900000 1.600000 0
2.000000 1.600000 0
0.000000 1.700000 0
0.100000 1.700000 0
0.200000 1.700000 0
0.300000 1.700000 0
0.400000 1.700000 0
0.500000 1.700000 0
0.600000 1.700000 0
0.700000 1.700000 0
0.800000 1.700000 0
0.900000 1.700000 0
1.000000 1.700000 0
1.100000 1.700000 0
1.200000 1.700000 0
1.300000 1.700000 0
1.400000 1.700000 0
1.500000 1.700000 0
1.600000 1.700000 0
1.700000 1.700000 0
1.800000 1.700000 0
1.900000 1.700000 0
2.000000 1.700000 0
0.000000 1.800000 0
0.100000 1.800000 0
0.200000 1.800000 0
0.300000 1.800000 0
0.400000 1.800000 0
0.500000 1.800000 0
0.600000 1.800000 0
0.700000 1.800000 0
0.800000 1.800000 0
0.900000 1.800000 0
1.000000 1.800000 0
1.100000 1.800000 0
1.200000 1.800000 0
1.300000 1.800000 0
1.400000 1.800000 0
1.500000 1.800000 0
1.600000 1.800000 0
1.700000 1.800000 0
1.800000 1.800000 0
1.900000 1.800000 0
2.000000 1.800000 0
0.000000 1.900000 0
0.100000 1.900000 0
0.200000 1.900000 0
0.300000 1.900000 0
0.400000 1.900000 0
0.500000 1.900000 0
0.600000 1.900000 0
0.700000 1.900000 0
0.800000 1.900000 0
0.900000 1.900000 0
1.000000 1.900000 0
1.100000 1.900000 0
1.200000 1.900000 0
1.300000 1.900000 0
1.400000 1.900000 0
1.500000 1.900000 0
1.600000 1.900000 0
1.700000 1.900000 0
1.800000 1.900000 0
1.900000 1.900000 0
2.000000 1.900000 0
0.000000 2.000000 0
0.100000 2.000000 0
0.200000 2.000000 0
0.300000 2.000000 0
0.400000 2.000000 0
0.500000 2.000000 0
0.600000 2.000000 0
0.700000 2.000000 0
0.800000 2.000000 0
0.900000 2.000000 0
1.000000 2.000000 0
1.100000 2.000000 0
1.200000 2.000000 0
1.300000 2.000000 0
1.400000 2.000000 0
1.500000 2.000000 0
1.600000 2.000000 0
1.700000 2.000000 0
1.800000 2.000000 0
1.900000 2.000000 0
2.000000 2.000000 0
POINT_DATA 441 

VECTORS velocity float
0.000000 0.000000 0
-0.000009 0.000000 0
-0.000008 0.000000 0
-0.000001 0.000000 0
0.000005 0.000000 0
0.000007 0.000000 0
0.000005 0.000000 0
0.000001 0.000000 0
-0.000002 0.000000 0
-0.000003 0.000000 0
-0.000003 0.000000 0
-0.000001 0.000000 0
-0.000000 0.000000 0
0.000001 0.000000 0
0.000001 0.000000 0
0.000000 0.000000 0
0.000000 0.000000 0
-0.000000 0.000000 0
-0.000000 0.000000 0
-0.000000 0.000000 0
-0.000000 0.000000 0
0.000000 -0.000012 0
0.000002 -0.000018 0
0.000011 -0.000009 0
0.000021 0.000005 0
0.000028 0.000013 0
0.000029 0.000014 0
0.000023 0.000011 0
0.000012 0.000007 0
-0.000002 0.000005 0
-0.000018 0.000006 0
-0.000032 0.000008 0
-0.000046 0.000010 0
-0.000057 0.000010 0
-0.000065 0.000009 0
-0.000071 0.000006 0
-0.000074 0.000004 0
-0.000076 0.000001 0
-0.000076 0.000000 0
-0.000076 -0.000000 0
-0.000075 -0.000000 0
-0.000075 -0.000000 0
0.000000 -0.000001 0
0.000010 -0.000015 0
0.000022 -0.000006 0
0.000028 -0.000001 0
0.000029 -0.000000 0
0.000027 0.000001 0
0.000022 0.000006 0
0.000013 0.000014 0
-0.000000 0.000022 0
-0.000016 0.000029 0
-0.000032 0.000031 0
-0.000048 0.000029 0
-0.000062 0.000023 0
-0.000071 0.000016 0
-0.000078 0.000010 0
-0.000080 0.000004 0
-0.000081 0.000001 0
-0.000081 -0.000001 0
-0.000080 -0.000001 0
-0.000079 -0.000001 0
-0.000079 -0.000001 0
0.000000 0.000005 0
0.000017 -0.000020 0
0.000024 -0.000021 0
0.000028 -0.000019 0
0.000030 -0.000012 0
0.000032 0.000002 0
0.000029 0.000018 0
0.000021 0.000034 0
0.000006 0.000046 0
-0.000013 0.000051 0
-0.000034 0.000049 0
-0.000053 0.000042 0
-0.000067 0.000032 0
-0.000076 0.000021 0
-0.000081 0.000012 0
-0.000083 0.000005 0
-0.000082 0.000001 0
-0.000081 -0.000001 0
-0.000079 -0.000002 0
-0.000078 -0.000001 0
-0.000078 -0.000001 0
0.000000 0.000000 0
0.000014 -0.000037 0
0.000023 -0.000038 0
0.000032 -0.000028 0
0.000040 -0.000010 0
0.000044 0.000011 0
0.000041 0.000033 0
0.000030 0.000052 0
0.000011 0.000065 0
-0.000013 0.000069 0
-0.000038 0.000066 0
-0.000059 0.000056 0
-0.000073 0.000042 0
-0.000082 0.000028 0
-0.000085 0.000015 0
-0.000085 0.000006 0
-0.000083 0.000000 0
-0.000080 -0.000003 0
-0.000078 -0.000003 0
-0.000076 -0.000002 0
-0.000076 -0.000001 0
0.000000 -0.000003 0
0.000013 -0.000052 0
0.000028 -0.000047 0
0.000041 -0.000032 0
0.000051 -0.000011 0
0.000055 0.000013 0
0.000052 0.000039 0
0.000039 0.000064 0
0.000016 0.000083 0
-0.000012 0.000092 0
-0.000041 0.000089 0
-0.000065 0.000075 0
-0.000080 0.000055 0
-0.000088 0.000034 0
-0.000089 0.000017 0
-0.000087 0.000004 0
-0.000082 -0.000003 0
-0.000078 -0.000006 0
-0.000075 -0.000006 0
-0.000073 -0.000003 0
-0.000072 -0.000002 0
0.000000 -0.000001 0
0.000015 -0.000064 0
0.000033 -0.000059 0
0.000048 -0.000044 0
0.000059 -0.000022 0
0.000065 0.000007 0
0.000063 0.000043 0
0.000049 0.000081 0
0.000024 0.000111 0
-0.000010 0.000125 0
-0.000044 0.000120 0
-0.000071 0.000098 0
-0.000087 0.000067 0
-0.000093 0.000038 0
-0.000092 0.000015 0
-0.000086 -0.000001 0
-0.000080 -0.000009 0
-0.000074 -0.000011 0
-0.000069 -0.000009 0
-0.000067 -0.000005 0
-0.000066 -0.000002 0
0.000000 0.000001 0
0.000017 -0.000079 0
0.000034 -0.000077 0
0.000050 -0.000062 0
0.000063 -0.000036 0
0.000072 0.000002 0
0.000072 0.000052 0
0.000059 0.000104 0
0.000032 0.000146 0
-0.000007 0.000164 0
-0.000046 0.000153 0
-0.000076 0.000120 0
-0.000091 0.000077 0
-0.000095 0.000038 0
-0.000090 0.000009 0
-0.000082 -0.000008 0
-0.000073 -0.000016 0
-0.000066 -0.000017 0
-0.000061 -0.000013 0
-0.000058 -0.000006 0
-0.000058 -0.000002 0
0.000000 0.000000 0
0.000015 -0.000096 0
0.000031 -0.000096 0
0.000046 -0.000079 0
0.000061 -0.000048 0
0.000072 -0.000002 0
0.000075 0.000060 0
0.000063 0.000126 0
0.000035 0.000181 0
-0.000005 0.000204 0
-0.000045 0.000188 0
-0.000074 0.000141 0
-0.000087 0.000085 0
-0.000087 0.000036 0
-0.000080 0.000002 0
-0.000071 -0.000017 0
-0.000061 -0.000024 0
-0.000054 -0.000023 0
-0.000049 -0.000017 0
-0.000046 -0.000007 0
-0.000046 -0.000002 0
0.000000 -0.000001 0
0.000010 -0.000111 0
0.000024 -0.000110 0
0.000037 -0.000092 0
0.000050 -0.000060 0
0.000060 -0.000008 0
0.000063 0.000063 0
0.000055 0.000144 0
0.000031 0.000213 0
-0.000003 0.000243 0
-0.000037 0.000221 0
-0.000060 0.000161 0
-0.000070 0.000090 0
-0.000068 0.000031 0
-0.000060 -0.000007 0
-0.000052 -0.000027 0
-0.000043 -0.000033 0
-0.000037 -0.000030 0
-0.000033 -0.000021 0
-0.000030 -0.000009 0
-0.000030 -0.000002 0
0.000000 -0.000000 0
0.000006 -0.000120 0
0.000014 -0.000120 0
0.000022 -0.000102 0
0.000029 -0.000070 0
0.000034 -0.000016 0
0.000037 0.000063 0
0.000032 0.000156 0
0.000020 0.000237 0
0.000000 0.000273 0
-0.000019 0.000246 0
-0.000032 0.000175 0
-0.000037 0.000093 0
-0.000035 0.000027 0
-0.000030 -0.000015 0
-0.000025 -0.000034 0
-0.000020 -0.000039 0
-0.000016 -0.000034 0
-0.000014 -0.000024 0
-0.000012 -0.000010 0
-0.000012 -0.000003 0
0.000000 0.000000 0
0.000000 -0.000123 0
0.000001 -0.000124 0
0.000001 -0.000107 0
0.000000 -0.000075 0
-0.000000 -0.000019 0
0.000000 0.000063 0
0.000001 0.000161 0
0.000002 0.000247 0
0.000003 0.000283 0
0.000004 0.000255 0
0.000005 0.000179 0
0.000006 0.000093 0
0.000006 0.000025 0
0.000006 -0.000018 0
0.000006 -0.000037 0
0.000007 -0.000042 0
0.000007 -0.000036 0
0.000007 -0.000025 0
0.000007 -0.000010 0
0.000007 -0.000003 0
0.000000 0.000000 0
-0.000006 -0.000120 0
-0.000013 -0.000121 0
-0.000020 -0.000104 0
-0.000028 -0.000071 0
-0.000034 -0.000016 0
-0.000036 0.000063 0
-0.000031 0.000156 0
-0.000016 0.000236 0
0.000006 0.000271 0
0.000028 0.000244 0
0.000042 0.000173 0
0.000048 0.000092 0
0.000047 0.000026 0
0.000043 -0.000015 0
0.000038 -0.000035 0
0.000034 -0.000040 0
0.000030 -0.000035 0
0.000028 -0.000024 0
0.000027 -0.000010 0
0.000027 -0.000002 0
0.000000 -0.000000 0
-0.000011 -0.000111 0
-0.000024 -0.000110 0
-0.000036 -0.000092 0
-0.000049 -0.000060 0
-0.000059 -0.000010 0
-0.000062 0.000060 0
-0.000053 0.000141 0
-0.000028 0.000210 0
0.000008 0.000239 0
0.000044 0.000218 0
0.000069 0.000158 0
0.000080 0.000088 0
0.000079 0.000030 0
0.000073 -0.000009 0
0.000065 -0.000028 0
0.000057 -0.000034 0
0.000051 -0.000030 0
0.000048 -0.000021 0
0.000046 -0.000009 0
0.000045 -0.000002 0
0.000000 -0.000000 0
-0.000015 -0.000097 0
-0.000030 -0.000094 0
-0.000046 -0.000077 0
-0.000061 -0.000048 0
-0.000071 -0.000003 0
-0.000073 0.000056 0
-0.000061 0.000121 0
-0.000031 0.000175 0
0.000010 0.000198 0
0.000052 0.000183 0
0.000082 0.000138 0
0.000097 0.000082 0
0.000098 0.000033 0
0.000093 -0.000001 0
0.000084 -0.000020 0
0.000076 -0.000026 0
0.000069 -0.000025 0
0.000064 -0.000018 0
0.000062 -0.000008 0
0.000061 -0.000002 0
0.000000 0.000000 0
-0.000016 -0.000080 0
-0.000034 -0.000077 0
-0.000050 -0.000061 0
-0.000064 -0.000036 0
-0.000073 0.000002 0
-0.000073 0.000049 0
-0.000058 0.000099 0
-0.000028 0.000139 0
0.000012 0.000157 0
0.000053 0.000146 0
0.000084 0.000114 0
0.000101 0.000072 0
0.000106 0.000034 0
0.000103 0.000006 0
0.000096 -0.000011 0
0.000089 -0.000019 0
0.000082 -0.000019 0
0.000077 -0.000014 0
0.000075 -0.000006 0
0.000074 -0.000002 0
0.000000 -0.000000 0
-0.000016 -0.000063 0
-0.000034 -0.000060 0
-0.000050 -0.000046 0
-0.000062 -0.000025 0
-0.000069 0.000005 0
-0.000066 0.000040 0
-0.000050 0.000077 0
-0.000022 0.000105 0
0.000014 0.000118 0
0.000051 0.000111 0
0.000080 0.000089 0
0.000099 0.000060 0
0.000107 0.000031 0
0.000107 0.000009 0
0.000103 -0.000005 0
0.000097 -0.000012 0
0.000092 -0.000013 0
0.000087 -0.000010 0
0.000085 -0.000005 0
0.000085 -0.000002 0
0.000000 -0.000000 0
-0.000016 -0.000047 0
-0.000033 -0.000044 0
-0.000048 -0.000033 0
-0.000058 -0.000016 0
-0.000062 0.000005 0
-0.000057 0.000030 0
-0.000042 0.000055 0
-0.000017 0.000075 0
0.000015 0.000083 0
0.000047 0.000080 0
0.000075 0.000065 0
0.000094 0.000046 0
0.000104 0.000026 0
0.000108 0.000009 0
0.000106 -0.000002 0
0.000102 -0.000007 0
0.000098 -0.000009 0
0.000095 -0.000007 0
0.000092 -0.000003 0
0.000092 -0.000001 0
0.000000 -0.000000 0
-0.000016 -0.000031 0
-0.000032 -0.000028 0
-0.000046 -0.000021 0
-0.000055 -0.000010 0
-0.000057 0.000004 0
-0.000051 0.000020 0
-0.000037 0.000036 0
-0.000013 0.000048 0
0.000016 0.000053 0
0.000045 0.000051 0
0.000071 0.000043 0
0.000090 0.000030 0
0.000102 0.000018 0
0.000107 0.000007 0
0.000108 -0.000000 0
0.000106 -0.000004 0
0.000102 -0.000006 0
0.000099 -0.000005 0
0.000097 -0.000002 0
0.000097 -0.000001 0
0.000000 -0.000000 0
-0.000015 -0.000015 0
-0.000031 -0.000014 0
-0.000043 -0.000010 0
-0.000052 -0.000005 0
-0.000053 0.000002 0
-0.000047 0.000010 0
-0.000033 0.000017 0
-0.000012 0.000023 0
0.000015 0.000025 0
0.000041 0.000024 0
0.000066 0.000020 0
0.000084 0.000015 0
0.000096 0.000009 0
0.000102 0.000004 0
0.000103 0.000000 0
0.000102 -0.000002 0
0.000099 -0.000003 0
0.000096 -0.000002 0
0.000094 -0.000001 0
0.000094 -0.000000 0
0.000000 0.000000 0
-0.000000 0.000000 0
-0.000000 0.000000 0
-0.000000 0.000000 0
-0.000000 0.000000 0
-0.000000 0.000000 0
-0.000000 0.000000 0
-0.000000 0.000000 0
-0.000000 0.000000 0
-0.000000 0.000000 0
0.000000 0.000000 0
0.000000 0.000000 0
0.000000 0.000000 0
0.000000 0.000000 0
0.000000 0.000000 0
0.000000 0.000000 0
0.000000 0.000000 0
0.000000 0.000000 0
0.000000 0.000000 0
0.000000 0.000000 0
0.000000 0.000000 0

CELL_DATA 400 
SCALARS pressure float 1 
LOOKUP_TABLE default 
0.242582
0.242619
0.242651
0.242655
0.242636
0.242610
0.242591
0.242587
0.242595
0.242607
0.242618
0.242624
0.242625
0.242623
0.242620
0.242618
0.242618
0.242619
0.242620
0.242620
0.219628
0.219633
0.219620
0.219604
0.219597
0.219599
0.219608
0.219618
0.219624
0.219625
0.219622
0.219619
0.219616
0.219615
0.219616
0.219617
0.219618
0.219619
0.219620
0.219621
0.196633
0.196606
0.196593
0.196598
0.196613
0.196628
0.196634
0.196632
0.196624
0.196616
0.196611
0.196610
0.196611
0.196614
0.196617
0.196619
0.196620
0.196620
0.196621
0.196621
0.173612
0.173600
0.173606
0.173621
0.173632
0.173634
0.173628
0.173619
0.173611
0.173607
0.173608
0.173612
0.173615
0.173618
0.173619
0.173620
0.173620
0.173620
0.173621
0.173621
0.150611
0.150616
0.150622
0.150624
0.150622
0.150618
0.150614
0.150611
0.150611
0.150613
0.150615
0.150617
0.150618
0.150619
0.150619
0.150619
0.150619
0.150620
0.150620
0.150621
0.127624
0.127623
0.127617
0.127612
0.127609
0.127611
0.127615
0.127618
0.127619
0.127619
0.127618
0.127617
0.127616
0.127617
0.127617
0.127618
0.127619
0.127620
0.127621
0.127621
0.104627
0.104618
0.104610
0.104609
0.104612
0.104618
0.104622
0.104623
0.104621
0.104618
0.104616
0.104615
0.104615
0.104617
0.104618
0.104619
0.104620
0.104621
0.104621
0.104622
0.081621
0.081616
0.081614
0.081616
0.081619
0.081622
0.081622
0.081620
0.081617
0.081616
0.081615
0.081616
0.081617
0.081618
0.081619
0.081620
0.081621
0.081621
0.081621
0.081622
0.058620
0.058621
0.058621
0.058620
0.058619
0.058618
0.058618
0.058617
0.058617
0.058618
0.058618
0.058619
0.058619
0.058620
0.058620
0.058620
0.058621
0.058621
0.058621
0.058622
0.035624
0.035625
0.035622
0.035618
0.035617
0.035617
0.035618
0.035620
0.035621
0.035621
0.035621
0.035621
0.035620
0.035620
0.035621
0.035621
0.035621
0.035622
0.035622
0.035622
0.012626
0.012624
0.012621
0.012619
0.012619
0.012620
0.012622
0.012624
0.012624
0.012623
0.012622
0.012622
0.012621
0.012621
0.012622
0.012622
0.012622
0.012622
0.012622
0.012622
-0.010375
-0.010376
-0.010377
-0.010377
-0.010377
-0.010376
-0.010376
-0.010375
-0.010375
-0.010376
-0.010376
-0.010376
-0.010377
-0.010377
-0.010377
-0.010377
-0.010377
-0.010377
-0.010377
-0.010377
-0.033376
-0.033374
-0.033374
-0.033374
-0.033375
-0.033376
-0.033375
-0.033375
-0.033374
-0.033373
-0.033373
-0.033374
-0.033374
-0.033375
-0.033376
-0.033376
-0.033376
-0.033377
-0.033377
-0.033377
-0.056374
-0.056372
-0.056373
-0.056374
-0.056375
-0.056375
-0.056374
-0.056373
-0.056372
-0.056371
-0.056371
-0.056372
-0.056373
-0.056374
-0.056375
-0.056375
-0.056376
-0.056376
-0.056376
-0.056377
-0.079373
-0.079372
-0.079372
-0.079373
-0.079373
-0.079373
-0.079372
-0.079371
-0.079370
-0.079370
-0.079371
-0.079371
-0.079372
-0.079373
-0.079374
-0.079374
-0.079375
-0.079376
-0.079376
-0.079377
-0.102373
-0.102372
-0.102372
-0.102371
-0.102371
-0.102371
-0.102371
-0.102370
-0.102370
-0.102370
-0.102370
-0.102371
-0.102371
-0.102372
-0.102373
-0.102374
-0.102374
-0.102375
-0.102376
-0.102376
-0.125373
-0.125372
-0.125371
-0.125370
-0.125370
-0.125371
-0.125370
-0.125370
-0.125370
-0.125369
-0.125369
-0.125370
-0.125371
-0.125371
-0.125372
-0.125373
-0.125374
-0.125375
-0.125375
-0.125376
-0.148372
-0.148371
-0.148370
-0.148370
-0.148370
-0.148370
-0.148370
-0.148369
-0.148369
-0.148369
-0.148369
-0.148369
-0.148370
-0.148371
-0.148372
-0.148373
-0.148374
-0.148374
-0.148375
-0.148376
-0.171372
-0.171371
-0.171370
-0.171370
-0.171370
-0.171369
-0.171369
-0.171369
-0.171369
-0.171368
-0.171369
-0.171369
-0.171370
-0.171371
-0.171372
-0.171372
-0.171373
-0.171374
-0.171375
-0.171376
-0.194371
-0.194371
-0.194370
-0.194370
-0.194369
-0.194369
-0.194368
-0.194368
-0.194368
-0.194368
-0.194368
-0.194369
-0.194369
-0.194370
-0.194371
-0.194372
-0.194373
-0.194374
-0.194375
-0.194376

SCALARS temperature float 1 
LOOKUP_TABLE default 
0.000010
0.000087
0.000236
0.000449
0.000708
0.000990
0.001262
0.001488
0.001640
0.001697
0.001658
0.001538
0.001361
0.001157
0.000953
0.000770
0.000619
0.000506
0.000431
0.000395
0.000012
0.000098
0.000268
0.000510
0.000808
0.001132
0.001445
0.001706
0.001879
0.001942
0.001893
0.001748
0.001540
0.001302
0.001067
0.000857
0.000685
0.000558
0.000474
0.000433
0.000015
0.000123
0.000335
0.000642
0.001022
0.001439
0.001845
0.002184
0.002406
0.002479
0.002403
0.002202
0.001921
0.001607
0.001302
0.001035
0.000820
0.000662
0.000560
0.000510
0.000019
0.000163
0.000449
0.000865
0.001388
0.001970
0.002542
0.003022
0.003332
0.003422
0.003291
0.002981
0.002564
0.002112
0.001685
0.001319
0.001031
0.000823
0.000690
0.000626
0.000027
0.000225
0.000620
0.001206
0.001955
0.002805
0.003657
0.004376
0.004834
0.004946
0.004710
0.004205
0.003552
0.002870
0.002246
0.001726
0.001327
0.001045
0.000868
0.000783
0.000037
0.000309
0.000860
0.001690
0.002776
0.004041
0.005336
0.006448
0.007149
0.007285
0.006857
0.006015
0.004974
0.003928
0.003006
0.002264
0.001710
0.001327
0.001090
0.000978
0.000050
0.000416
0.001168
0.002326
0.003882
0.005749
0.007722
0.009452
0.010539
0.010699
0.009938
0.008540
0.006891
0.005305
0.003962
0.002920
0.002165
0.001655
0.001346
0.001200
0.000065
0.000540
0.001529
0.003087
0.005243
0.007922
0.010854
0.013503
0.015175
0.015353
0.014053
0.011804
0.009271
0.006948
0.005062
0.003650
0.002659
0.002005
0.001614
0.001433
0.000080
0.000666
0.001901
0.003887
0.006717
0.010362
0.014504
0.018370
0.020839
0.021025
0.018962
0.015557
0.011895
0.008683
0.006181
0.004372
0.003136
0.002338
0.001867
0.001651
0.000092
0.000771
0.002216
0.004579
0.008026
0.012602
0.017977
0.023145
0.026491
0.026679
0.023756
0.019102
0.014277
0.010202
0.007131
0.004972
0.003527
0.002608
0.002072
0.001826
0.000100
0.000833
0.002402
0.004990
0.008815
0.013980
0.020165
0.026219
0.030175
0.030365
0.026847
0.021340
0.015748
0.011124
0.007703
0.005333
0.003764
0.002773
0.002198
0.001935
0.000100
0.000837
0.002412
0.005007
0.008834
0.013992
0.020159
0.026192
0.030140
0.030340
0.026849
0.021373
0.015802
0.011185
0.007762
0.005385
0.003807
0.002810
0.002230
0.001964
0.000094
0.000785
0.002250
0.004636
0.008098
0.012668
0.018014
0.023148
0.026484
0.026699
0.023835
0.019244
0.014460
0.010395
0.007311
0.005128
0.003658
0.002718
0.002167
0.001913
0.000083
0.000691
0.001965
0.004001
0.006876
0.010548
0.014696
0.018558
0.021041
0.021265
0.019254
0.015899
0.012258
0.009034
0.006494
0.004638
0.003357
0.002522
0.002026
0.001796
0.000069
0.000579
0.001631
0.003273
0.005521
0.008285
0.011285
0.013987
0.015706
0.015927
0.014658
0.012415
0.009859
0.007480
0.005520
0.004031
0.002971
0.002263
0.001836
0.001636
0.000056
0.000470
0.001312
0.002595
0.004297
0.006316
0.008427
0.010273
0.011443
0.011649
0.010891
0.009453
0.007724
0.006032
0.004572
0.003418
0.002569
0.001987
0.001629
0.001459
0.000045
0.000378
0.001047
0.002044
0.003332
0.004813
0.006316
0.007600
0.008418
0.008604
0.008156
0.007229
0.006056
0.004853
0.003770
0.002880
0.002205
0.001731
0.001434
0.001292
0.000037
0.000309
0.000851
0.001646
0.002650
0.003779
0.004898
0.005842
0.006450
0.006617
0.006340
0.005712
0.004880
0.003993
0.003164
0.002463
0.001915
0.001523
0.001273
0.001153
0.000032
0.000265
0.000725
0.001394
0.002226
0.003147
0.004049
0.004803
0.005294
0.005447
0.005258
0.004791
0.004148
0.003443
0.002768
0.002183
0.001717
0.001378
0.001160
0.001054
0.000029
0.000243
0.000665
0.001273
0.002025
0.002851
0.003654
0.004325
0.004764
0.004910
0.004758
0.004359
0.003800
0.003178
0.002573
0.002043
0.001617
0.001305
0.001102
0.001003


SCALARS Species_1 float 1 
LOOKUP_TABLE default 
0.000597
0.001791
0.002987
0.004180
0.005362
0.006519
0.007633
0.008682
0.009640
0.010486
0.011203
0.011779
0.012213
0.012513
0.012695
0.012784
0.012807
0.012793
0.012768
0.012751
0.000601
0.001804
0.003008
0.004209
0.005399
0.006563
0.007684
0.008738
0.009701
0.010553
0.011273
0.011853
0.012290
0.012593
0.012777
0.012867
0.012892
0.012880
0.012855
0.012838
0.000609
0.001827
0.003046
0.004261
0.005465
0.006642
0.007775
0.008841
0.009815
0.010675
0.011404
0.011990
0.012432
0.012739
0.012926
0.013018
0.013044
0.013033
0.013009
0.012992
0.000618
0.001856
0.003093
0.004327
0.005548
0.006742
0.007891
0.008971
0.009958
0.010830
0.011569
0.012163
0.012612
0.012923
0.013114
0.013208
0.013236
0.013225
0.013201
0.013185
0.000628
0.001885
0.003141
0.004393
0.005632
0.006844
0.008009
0.009104
0.010105
0.010988
0.011737
0.012339
0.012794
0.013110
0.013304
0.013401
0.013429
0.013419
0.013396
0.013379
0.000636
0.001908
0.003180
0.004447
0.005700
0.006925
0.008103
0.009210
0.010222
0.011115
0.011871
0.012480
0.012940
0.013260
0.013456
0.013555
0.013584
0.013575
0.013552
0.013535
0.000640
0.001921
0.003200
0.004474
0.005735
0.006967
0.008150
0.009263
0.010279
0.011176
0.011936
0.012548
0.013011
0.013332
0.013530
0.013630
0.013661
0.013651
0.013629
0.013613
0.000639
0.001917
0.003193
0.004464
0.005721
0.006949
0.008129
0.009238
0.010251
0.011145
0.011902
0.012512
0.012973
0.013294
0.013492
0.013592
0.013623
0.013615
0.013593
0.013578
0.000631
0.001893
0.003153
0.004408
0.005648
0.006860
0.008025
0.009118
0.010118
0.011000
0.011747
0.012349
0.012804
0.013121
0.013317
0.013417
0.013448
0.013441
0.013420
0.013405
0.000616
0.001847
0.003077
0.004301
0.005512
0.006694
0.007830
0.008896
0.009871
0.010731
0.011460
0.012047
0.012491
0.012801
0.012993
0.013091
0.013123
0.013117
0.013097
0.013082
0.000593
0.001780
0.002966
0.004146
0.005312
0.006451
0.007546
0.008573
0.009512
0.010341
0.011043
0.011609
0.012037
0.012337
0.012523
0.012618
0.012650
0.012645
0.012627
0.012613
0.000565
0.001694
0.002823
0.003946
0.005056
0.006140
0.007182
0.008160
0.009053
0.009842
0.010511
0.011050
0.011458
0.011744
0.011922
0.012015
0.012046
0.012042
0.012025
0.012013
0.000531
0.001594
0.002655
0.003712
0.004756
0.005776
0.006756
0.007676
0.008517
0.009260
0.009889
0.010397
0.010782
0.011052
0.011221
0.011309
0.011340
0.011337
0.011322
0.011311
0.000495
0.001484
0.002473
0.003457
0.004430
0.005380
0.006293
0.007150
0.007933
0.008626
0.009213
0.009687
0.010047
0.010300
0.010459
0.010542
0.010572
0.010571
0.010558
0.010547
0.000457
0.001372
0.002286
0.003196
0.004096
0.004975
0.005819
0.006612
0.007338
0.007979
0.008523
0.008962
0.009297
0.009533
0.009681
0.009760
0.009789
0.009788
0.009777
0.009767
0.000421
0.001264
0.002107
0.002946
0.003776
0.004587
0.005366
0.006098
0.006767
0.007359
0.007862
0.008270
0.008580
0.008799
0.008937
0.009011
0.009039
0.009039
0.009029
0.009021
0.000389
0.001169
0.001947
0.002723
0.003491
0.004241
0.004962
0.005639
0.006259
0.006808
0.007274
0.007652
0.007941
0.008145
0.008274
0.008344
0.008371
0.008372
0.008363
0.008356
0.000363
0.001091
0.001818
0.002542
0.003259
0.003960
0.004633
0.005267
0.005846
0.006360
0.006797
0.007151
0.007422
0.007614
0.007736
0.007802
0.007828
0.007830
0.007822
0.007816
0.000345
0.001036
0.001726
0.002415
0.003096
0.003762
0.004402
0.005004
0.005556
0.006044
0.006460
0.006798
0.007056
0.007240
0.007357
0.007420
0.007446
0.007448
0.007441
0.007435
0.000336
0.001007
0.001679
0.002349
0.003012
0.003660
0.004283
0.004869
0.005406
0.005881
0.006287
0.006616
0.006868
0.007047
0.007161
0.007223
0.007248
0.007251
0.007244
0.007238


SCALARS Species_2 float 1 
LOOKUP_TABLE default 
0.000307
0.000907
0.001466
0.001958
0.002366
0.002675
0.002880
0.002981
0.002985
0.002903
0.002752
0.002549
0.002313
0.002063
0.001817
0.001588
0.001391
0.001235
0.001126
0.001071
0.000322
0.000950
0.001534
0.002050
0.002477
0.002800
0.003015
0.003121
0.003125
0.003040
0.002882
0.002670
0.002423
0.002162
0.001905
0.001666
0.001460
0.001296
0.001183
0.001125
0.000350
0.001033
0.001668
0.002229
0.002692
0.003044
0.003277
0.003392
0.003397
0.003304
0.003132
0.002902
0.002635
0.002351
0.002072
0.001813
0.001589
0.001411
0.001288
0.001226
0.000391