# vtk DataFile Version 2.0
generated by CFD-lab course output (written by Tobias Neckel) 
ASCII

DATASET STRUCTURED_GRID
DIMENSIONS  21 21 1 
POINTS 441 float

0.000000 0.000000 0
0.100000 0.000000 0
0.200000 0.000000 0
0.300000 0.000000 0
0.400000 0.000000 0
0.500000 0.000000 0
0.600000 0.000000 0
0.700000 0.000000 0
0.800000 0.000000 0
0.900000 0.000000 0
1.000000 0.000000 0
1.100000 0.000000 0
1.200000 0.000000 0
1.300000 0.000000 0
1.400000 0.000000 0
1.500000 0.000000 0
1.600000 0.000000 0
1.700000 0.000000 0
1.800000 0.000000 0
1.900000 0.000000 0
2.000000 0.000000 0
0.000000 0.100000 0
0.100000 0.100000 0
0.200000 0.100000 0
0.300000 0.100000 0
0.400000 0.100000 0
0.500000 0.100000 0
0.600000 0.100000 0
0.700000 0.100000 0
0.800000 0.100000 0
0.900000 0.100000 0
1.000000 0.100000 0
1.100000 0.100000 0
1.200000 0.100000 0
1.300000 0.100000 0
1.400000 0.100000 0
1.500000 0.100000 0
1.600000 0.100000 0
1.700000 0.100000 0
1.800000 0.100000 0
1.900000 0.100000 0
2.000000 0.100000 0
0.000000 0.200000 0
0.100000 0.200000 0
0.200000 0.200000 0
0.300000 0.200000 0
0.400000 0.200000 0
0.500000 0.200000 0
0.600000 0.200000 0
0.700000 0.200000 0
0.800000 0.200000 0
0.900000 0.200000 0
1.000000 0.200000 0
1.100000 0.200000 0
1.200000 0.200000 0
1.300000 0.200000 0
1.400000 0.200000 0
1.500000 0.200000 0
1.600000 0.200000 0
1.700000 0.200000 0
1.800000 0.200000 0
1.900000 0.200000 0
2.000000 0.200000 0
0.000000 0.300000 0
0.100000 0.300000 0
0.200000 0.300000 0
0.300000 0.300000 0
0.400000 0.300000 0
0.500000 0.300000 0
0.600000 0.300000 0
0.700000 0.300000 0
0.800000 0.300000 0
0.900000 0.300000 0
1.000000 0.300000 0
1.100000 0.300000 0
1.200000 0.300000 0
1.300000 0.300000 0
1.400000 0.300000 0
1.500000 0.300000 0
1.600000 0.300000 0
1.700000 0.300000 0
1.800000 0.300000 0
1.900000 0.300000 0
2.000000 0.300000 0
0.000000 0.400000 0
0.100000 0.400000 0
0.200000 0.400000 0
0.300000 0.400000 0
0.400000 0.400000 0
0.500000 0.400000 0
0.600000 0.400000 0
0.700000 0.400000 0
0.800000 0.400000 0
0.900000 0.400000 0
1.000000 0.400000 0
1.100000 0.400000 0
1.200000 0.400000 0
1.300000 0.400000 0
1.400000 0.400000 0
1.500000 0.400000 0
1.600000 0.400000 0
1.700000 0.400000 0
1.800000 0.400000 0
1.900000 0.400000 0
2.000000 0.400000 0
0.000000 0.500000 0
0.100000 0.500000 0
0.200000 0.500000 0
0.300000 0.500000 0
0.400000 0.500000 0
0.500000 0.500000 0
0.600000 0.500000 0
0.700000 0.500000 0
0.800000 0.500000 0
0.900000 0.500000 0
1.000000 0.500000 0
1.100000 0.500000 0
1.200000 0.500000 0
1.300000 0.500000 0
1.400000 0.500000 0
1.500000 0.500000 0
1.600000 0.500000 0
1.700000 0.500000 0
1.800000 0.500000 0
1.900000 0.500000 0
2.000000 0.500000 0
0.000000 0.600000 0
0.100000 0.600000 0
0.200000 0.600000 0
0.300000 0.600000 0
0.400000 0.600000 0
0.500000 0.600000 0
0.600000 0.600000 0
0.700000 0.600000 0
0.800000 0.600000 0
0.900000 0.600000 0
1.000000 0.600000 0
1.100000 0.600000 0
1.200000 0.600000 0
1.300000 0.600000 0
1.400000 0.600000 0
1.500000 0.600000 0
1.600000 0.600000 0
1.700000 0.600000 0
1.800000 0.600000 0
1.900000 0.600000 0
2.000000 0.600000 0
0.000000 0.700000 0
0.100000 0.700000 0
0.200000 0.700000 0
0.300000 0.700000 0
0.400000 0.700000 0
0.500000 0.700000 0
0.600000 0.700000 0
0.700000 0.700000 0
0.800000 0.700000 0
0.900000 0.700000 0
1.000000 0.700000 0
1.100000 0.700000 0
1.200000 0.700000 0
1.300000 0.700000 0
1.400000 0.700000 0
1.500000 0.700000 0
1.600000 0.700000 0
1.700000 0.700000 0
1.800000 0.700000 0
1.900000 0.700000 0
2.000000 0.700000 0
0.000000 0.800000 0
0.100000 0.800000 0
0.200000 0.800000 0
0.300000 0.800000 0
0.400000 0.800000 0
0.500000 0.800000 0
0.600000 0.800000 0
0.700000 0.800000 0
0.800000 0.800000 0
0.900000 0.800000 0
1.000000 0.800000 0
1.100000 0.800000 0
1.200000 0.800000 0
1.300000 0.800000 0
1.400000 0.800000 0
1.500000 0.800000 0
1.600000 0.800000 0
1.700000 0.800000 0
1.800000 0.800000 0
1.900000 0.800000 0
2.000000 0.800000 0
0.000000 0.900000 0
0.100000 0.900000 0
0.200000 0.900000 0
0.300000 0.900000 0
0.400000 0.900000 0
0.500000 0.900000 0
0.600000 0.900000 0
0.700000 0.900000 0
0.800000 0.900000 0
0.900000 0.900000 0
1.000000 0.900000 0
1.100000 0.900000 0
1.200000 0.900000 0
1.300000 0.900000 0
1.400000 0.900000 0
1.500000 0.900000 0
1.600000 0.900000 0
1.700000 0.900000 0
1.800000 0.900000 0
1.900000 0.900000 0
2.000000 0.900000 0
0.000000 1.000000 0
0.100000 1.000000 0
0.200000 1.000000 0
0.300000 1.000000 0
0.400000 1.000000 0
0.500000 1.000000 0
0.600000 1.000000 0
0.700000 1.000000 0
0.800000 1.000000 0
0.900000 1.000000 0
1.000000 1.000000 0
1.100000 1.000000 0
1.200000 1.000000 0
1.300000 1.000000 0
1.400000 1.000000 0
1.500000 1.000000 0
1.600000 1.000000 0
1.700000 1.000000 0
1.800000 1.000000 0
1.900000 1.000000 0
2.000000 1.000000 0
0.000000 1.100000 0
0.100000 1.100000 0
0.200000 1.100000 0
0.300000 1.100000 0
0.400000 1.100000 0
0.500000 1.100000 0
0.600000 1.100000 0
0.700000 1.100000 0
0.800000 1.100000 0
0.900000 1.100000 0
1.000000 1.100000 0
1.100000 1.100000 0
1.200000 1.100000 0
1.300000 1.100000 0
1.400000 1.100000 0
1.500000 1.100000 0
1.600000 1.100000 0
1.700000 1.100000 0
1.800000 1.100000 0
1.900000 1.100000 0
2.000000 1.100000 0
0.000000 1.200000 0
0.100000 1.200000 0
0.200000 1.200000 0
0.300000 1.200000 0
0.400000 1.200000 0
0.500000 1.200000 0
0.600000 1.200000 0
0.700000 1.200000 0
0.800000 1.200000 0
0.900000 1.200000 0
1.000000 1.200000 0
1.100000 1.200000 0
1.200000 1.200000 0
1.300000 1.200000 0
1.400000 1.200000 0
1.500000 1.200000 0
1.600000 1.200000 0
1.700000 1.200000 0
1.800000 1.200000 0
1.900000 1.200000 0
2.000000 1.200000 0
0.000000 1.300000 0
0.100000 1.300000 0
0.200000 1.300000 0
0.300000 1.300000 0
0.400000 1.300000 0
0.500000 1.300000 0
0.600000 1.300000 0
0.700000 1.300000 0
0.800000 1.300000 0
0.900000 1.300000 0
1.000000 1.300000 0
1.100000 1.300000 0
1.200000 1.300000 0
1.300000 1.300000 0
1.400000 1.300000 0
1.500000 1.300000 0
1.600000 1.300000 0
1.700000 1.300000 0
1.800000 1.300000 0
1.900000 1.300000 0
2.000000 1.300000 0
0.000000 1.400000 0
0.100000 1.400000 0
0.200000 1.400000 0
0.300000 1.400000 0
0.400000 1.400000 0
0.500000 1.400000 0
0.600000 1.400000 0
0.700000 1.400000 0
0.800000 1.400000 0
0.900000 1.400000 0
1.000000 1.400000 0
1.100000 1.400000 0
1.200000 1.400000 0
1.300000 1.400000 0
1.400000 1.400000 0
1.500000 1.400000 0
1.600000 1.400000 0
1.700000 1.400000 0
1.800000 1.400000 0
1.900000 1.400000 0
2.000000 1.400000 0
0.000000 1.500000 0
0.100000 1.500000 0
0.200000 1.500000 0
0.300000 1.500000 0
0.400000 1.500000 0
0.500000 1.500000 0
0.600000 1.500000 0
0.700000 1.500000 0
0.800000 1.500000 0
0.900000 1.500000 0
1.000000 1.500000 0
1.100000 1.500000 0
1.200000 1.500000 0
1.300000 1.500000 0
1.400000 1.500000 0
1.500000 1.500000 0
1.600000 1.500000 0
1.700000 1.500000 0
1.800000 1.500000 0
1.900000 1.500000 0
2.000000 1.500000 0
0.000000 1.600000 0
0.100000 1.600000 0
0.200000 1.600000 0
0.300000 1.600000 0
0.400000 1.600000 0
0.500000 1.600000 0
0.600000 1.600000 0
0.700000 1.600000 0
0.800000 1.600000 0
0.900000 1.600000 0
1.000000 1.600000 0
1.100000 1.600000 0
1.200000 1.600000 0
1.300000 1.600000 0
1.400000 1.600000 0
1.500000 1.600000 0
1.600000 1.600000 0
1.700000 1.600000 0
1.800000 1.600000 0
1.900000 1.600000 0
2.000000 1.600000 0
0.000000 1.700000 0
0.100000 1.700000 0
0.200000 1.700000 0
0.300000 1.700000 0
0.400000 1.700000 0
0.500000 1.700000 0
0.600000 1.700000 0
0.700000 1.700000 0
0.800000 1.700000 0
0.900000 1.700000 0
1.000000 1.700000 0
1.100000 1.700000 0
1.200000 1.700000 0
1.300000 1.700000 0
1.400000 1.700000 0
1.500000 1.700000 0
1.600000 1.700000 0
1.700000 1.700000 0
1.800000 1.700000 0
1.900000 1.700000 0
2.000000 1.700000 0
0.000000 1.800000 0
0.100000 1.800000 0
0.200000 1.800000 0
0.300000 1.800000 0
0.400000 1.800000 0
0.500000 1.800000 0
0.600000 1.800000 0
0.700000 1.800000 0
0.800000 1.800000 0
0.900000 1.800000 0
1.000000 1.800000 0
1.100000 1.800000 0
1.200000 1.800000 0
1.300000 1.800000 0
1.400000 1.800000 0
1.500000 1.800000 0
1.600000 1.800000 0
1.700000 1.800000 0
1.800000 1.800000 0
1.900000 1.800000 0
2.000000 1.800000 0
0.000000 1.900000 0
0.100000 1.900000 0
0.200000 1.900000 0
0.300000 1.900000 0
0.400000 1.900000 0
0.500000 1.900000 0
0.600000 1.900000 0
0.700000 1.900000 0
0.800000 1.900000 0
0.900000 1.900000 0
1.000000 1.900000 0
1.100000 1.900000 0
1.200000 1.900000 0
1.300000 1.900000 0
1.400000 1.900000 0
1.500000 1.900000 0
1.600000 1.900000 0
1.700000 1.900000 0
1.800000 1.900000 0
1.900000 1.900000 0
2.000000 1.900000 0
0.000000 2.000000 0
0.100000 2.000000 0
0.200000 2.000000 0
0.300000 2.000000 0
0.400000 2.000000 0
0.500000 2.000000 0
0.600000 2.000000 0
0.700000 2.000000 0
0.800000 2.000000 0
0.900000 2.000000 0
1.000000 2.000000 0
1.100000 2.000000 0
1.200000 2.000000 0
1.300000 2.000000 0
1.400000 2.000000 0
1.500000 2.000000 0
1.600000 2.000000 0
1.700000 2.000000 0
1.800000 2.000000 0
1.900000 2.000000 0
2.000000 2.000000 0
POINT_DATA 441 

VECTORS velocity float
0.000000 0.000000 0
0.000005 0.000000 0
0.000011 0.000000 0
0.000008 0.000000 0
-0.000000 0.000000 0
-0.000007 0.000000 0
-0.000008 0.000000 0
-0.000005 0.000000 0
-0.000001 0.000000 0
0.000003 0.000000 0
0.000004 0.000000 0
0.000003 0.000000 0
0.000001 0.000000 0
-0.000000 0.000000 0
-0.000001 0.000000 0
-0.000001 0.000000 0
-0.000001 0.000000 0
-0.000000 0.000000 0
0.000000 0.000000 0
-0.000000 0.000000 0
-0.000000 0.000000 0
0.000000 0.000011 0
0.000005 0.000012 0
0.000007 0.000008 0
0.000003 -0.000005 0
-0.000001 -0.000015 0
-0.000003 -0.000016 0
-0.000003 -0.000009 0
-0.000001 0.000001 0
0.000001 0.000008 0
0.000001 0.000010 0
-0.000000 0.000008 0
-0.000002 0.000004 0
-0.000004 0.000000 0
-0.000005 -0.000002 0
-0.000005 -0.000002 0
-0.000005 -0.000001 0
-0.000005 -0.000001 0
-0.000005 -0.000000 0
-0.000005 -0.000000 0
-0.000005 0.000000 0
-0.000005 -0.000000 0
0.000000 0.000007 0
0.000001 0.000001 0
-0.000003 -0.000009 0
-0.000003 -0.000012 0
0.000000 -0.000006 0
0.000004 0.000002 0
0.000005 0.000009 0
0.000004 0.000011 0
0.000001 0.000008 0
-0.000002 0.000004 0
-0.000004 0.000000 0
-0.000005 -0.000002 0
-0.000005 -0.000002 0
-0.000005 -0.000001 0
-0.000005 0.000000 0
-0.000005 0.000001 0
-0.000005 0.000001 0
-0.000005 0.000000 0
-0.000005 0.000000 0
-0.000005 -0.000000 0
-0.000005 -0.000000 0
0.000000 -0.000006 0
-0.000006 -0.000008 0
-0.000004 -0.000005 0
0.000002 0.000002 0
0.000006 0.000007 0
0.000007 0.000008 0
0.000005 0.000005 0
0.000001 0.000001 0
-0.000002 -0.000001 0
-0.000004 -0.000001 0
-0.000004 0.000000 0
-0.000004 0.000002 0
-0.000004 0.000002 0
-0.000005 0.000002 0
-0.000005 0.000002 0
-0.000005 0.000001 0
-0.000005 0.000000 0
-0.000005 -0.000000 0
-0.000005 -0.000000 0
-0.000005 -0.000000 0
-0.000005 -0.000000 0
0.000000 -0.000004 0
-0.000002 -0.000003 0
0.000002 0.000003 0
0.000005 0.000005 0
0.000006 0.000002 0
0.000004 -0.000002 0
0.000003 -0.000003 0
0.000001 -0.000002 0
-0.000001 0.000001 0
-0.000002 0.000005 0
-0.000003 0.000006 0
-0.000004 0.000006 0
-0.000005 0.000004 0
-0.000006 0.000002 0
-0.000006 0.000001 0
-0.000006 -0.000000 0
-0.000006 -0.000001 0
-0.000005 -0.000001 0
-0.000005 -0.000001 0
-0.000005 -0.000000 0
-0.000005 -0.000000 0
0.000000 0.000004 0
0.000002 0.000000 0
0.000002 -0.000001 0
0.000002 -0.000004 0
0.000003 -0.000005 0
0.000004 -0.000004 0
0.000005 -0.000000 0
0.000004 0.000005 0
0.000002 0.000008 0
-0.000001 0.000010 0
-0.000004 0.000008 0
-0.000006 0.000006 0
-0.000007 0.000003 0
-0.000007 0.000001 0
-0.000007 -0.000000 0
-0.000006 -0.000001 0
-0.000006 -0.000001 0
-0.000005 -0.000001 0
-0.000005 -0.000001 0
-0.000005 -0.000001 0
-0.000005 -0.000000 0
0.000000 0.000002 0
0.000001 -0.000004 0
0.000000 -0.000006 0
0.000002 -0.000006 0
0.000004 -0.000003 0
0.000007 0.000001 0
0.000008 0.000005 0
0.000007 0.000008 0
0.000003 0.000010 0
-0.000001 0.000010 0
-0.000005 0.000009 0
-0.000008 0.000006 0
-0.000009 0.000003 0
-0.000008 0.000001 0
-0.000007 -0.000000 0
-0.000006 -0.000001 0
-0.000006 -0.000001 0
-0.000005 -0.000001 0
-0.000005 -0.000001 0
-0.000004 -0.000001 0
-0.000004 -0.000001 0
0.000000 -0.000002 0
-0.000000 -0.000008 0
0.000001 -0.000006 0
0.000004 -0.000003 0
0.000007 -0.000001 0
0.000009 0.000001 0
0.000009 0.000004 0
0.000008 0.000008 0
0.000004 0.000011 0
-0.000001 0.000013 0
-0.000006 0.000012 0
-0.000009 0.000009 0
-0.000010 0.000005 0
-0.000009 0.000001 0
-0.000008 -0.000001 0
-0.000007 -0.000002 0
-0.000005 -0.000002 0
-0.000005 -0.000002 0
-0.000004 -0.000002 0
-0.000004 -0.000001 0
-0.000004 -0.000001 0
0.000000 -0.000001 0
0.000001 -0.000007 0
0.000003 -0.000006 0
0.000004 -0.000005 0
0.000006 -0.000005 0
0.000008 -0.000003 0
0.000009 0.000002 0
0.000009 0.000009 0
0.000005 0.000016 0
-0.000000 0.000020 0
-0.000006 0.000018 0
-0.000010 0.000012 0
-0.000011 0.000005 0
-0.000009 -0.000000 0
-0.000008 -0.000003 0
-0.000006 -0.000004 0
-0.000005 -0.000003 0
-0.000004 -0.000003 0
-0.000003 -0.000002 0
-0.000003 -0.000001 0
-0.000003 -0.000001 0
0.000000 0.000001 0
0.000002 -0.000008 0
0.000002 -0.000008 0
0.000003 -0.000009 0
0.000005 -0.000008 0
0.000007 -0.000005 0
0.000009 0.000002 0
0.000009 0.000012 0
0.000006 0.000022 0
0.000000 0.000026 0
-0.000006 0.000023 0
-0.000009 0.000013 0
-0.000009 0.000004 0
-0.000008 -0.000002 0
-0.000006 -0.000005 0
-0.000005 -0.000005 0
-0.000004 -0.000005 0
-0.000003 -0.000004 0
-0.000002 -0.000002 0
-0.000002 -0.000001 0
-0.000002 -0.000001 0
0.000000 0.000000 0
0.000001 -0.000009 0
0.000001 -0.000010 0
0.000001 -0.000010 0
0.000002 -0.000009 0
0.000004 -0.000005 0
0.000005 0.000003 0
0.000006 0.000014 0
0.000004 0.000026 0
0.000000 0.000031 0
-0.000003 0.000026 0
-0.000005 0.000015 0
-0.000005 0.000004 0
-0.000005 -0.000003 0
-0.000003 -0.000006 0
-0.000002 -0.000006 0
-0.000002 -0.000005 0
-0.000001 -0.000004 0
-0.000001 -0.000003 0
-0.000001 -0.000001 0
-0.000001 -0.000001 0
0.000000 -0.000001 0
0.000000 -0.000010 0
-0.000000 -0.000010 0
-0.000000 -0.000010 0
-0.000000 -0.000009 0
-0.000000 -0.000006 0
-0.000000 0.000002 0
0.000000 0.000014 0
0.000000 0.000027 0
0.000000 0.000032 0
0.000000 0.000027 0
0.000000 0.000015 0
0.000000 0.000004 0
0.000000 -0.000004 0
0.000000 -0.000007 0
0.000000 -0.000007 0
0.000000 -0.000006 0
0.000000 -0.000004 0
0.000000 -0.000003 0
0.000000 -0.000001 0
0.000000 -0.000001 0
0.000000 -0.000000 0
-0.000000 -0.000009 0
-0.000001 -0.000009 0
-0.000002 -0.000010 0
-0.000003 -0.000009 0
-0.000005 -0.000005 0
-0.000005 0.000002 0
-0.000005 0.000013 0
-0.000003 0.000025 0
0.000001 0.000030 0
0.000004 0.000026 0
0.000006 0.000015 0
0.000006 0.000004 0
0.000005 -0.000003 0
0.000004 -0.000006 0
0.000003 -0.000006 0
0.000003 -0.000005 0
0.000002 -0.000004 0
0.000002 -0.000003 0
0.000002 -0.000001 0
0.000002 -0.000001 0
0.000000 0.000000 0
-0.000000 -0.000008 0
-0.000002 -0.000009 0
-0.000004 -0.000009 0
-0.000006 -0.000007 0
-0.000008 -0.000004 0
-0.000009 0.000003 0
-0.000008 0.000012 0
-0.000005 0.000021 0
0.000001 0.000025 0
0.000006 0.000022 0
0.000009 0.000013 0
0.000010 0.000004 0
0.000009 -0.000002 0
0.000007 -0.000005 0
0.000006 -0.000005 0
0.000004 -0.000005 0
0.000004 -0.000004 0
0.000003 -0.000002 0
0.000003 -0.000001 0
0.000003 -0.000001 0
0.000000 0.000000 0
-0.000001 -0.000007 0
-0.000002 -0.000007 0
-0.000004 -0.000007 0
-0.000007 -0.000005 0
-0.000008 -0.000002 0
-0.000009 0.000003 0
-0.000008 0.000010 0
-0.000005 0.000017 0
0.000001 0.000019 0
0.000007 0.000017 0
0.000010 0.000011 0
0.000011 0.000004 0
0.000010 -0.000001 0
0.000009 -0.000003 0
0.000007 -0.000004 0
0.000006 -0.000003 0
0.000005 -0.000003 0
0.000004 -0.000002 0
0.000004 -0.000001 0
0.000004 -0.000001 0
0.000000 -0.000000 0
-0.000001 -0.000006 0
-0.000003 -0.000006 0
-0.000004 -0.000005 0
-0.000006 -0.000004 0
-0.000008 -0.000001 0
-0.000008 0.000003 0
-0.000007 0.000008 0
-0.000004 0.000012 0
0.000001 0.000014 0
0.000006 0.000012 0
0.000009 0.000008 0
0.000010 0.000004 0
0.000010 0.000001 0
0.000009 -0.000002 0
0.000008 -0.000002 0
0.000007 -0.000002 0
0.000006 -0.000002 0
0.000005 -0.000001 0
0.000005 -0.000001 0
0.000005 -0.000001 0
0.000000 -0.000000 0
-0.000001 -0.000004 0
-0.000002 -0.000004 0
-0.000004 -0.000003 0
-0.000005 -0.000002 0
-0.000006 -0.000000 0
-0.000007 0.000003 0
-0.000005 0.000006 0
-0.000003 0.000008 0
0.000001 0.000010 0
0.000005 0.000009 0
0.000008 0.000006 0
0.000009 0.000003 0
0.000009 0.000001 0
0.000009 -0.000001 0
0.000008 -0.000001 0
0.000007 -0.000002 0
0.000006 -0.000001 0
0.000006 -0.000001 0
0.000005 -0.000001 0
0.000005 -0.000000 0
0.000000 0.000000 0
-0.000001 -0.000003 0
-0.000002 -0.000003 0
-0.000003 -0.000002 0
-0.000004 -0.000001 0
-0.000005 0.000000 0
-0.000005 0.000002 0
-0.000004 0.000004 0
-0.000002 0.000006 0
0.000001 0.000006 0
0.000004 0.000006 0
0.000007 0.000004 0
0.000008 0.000003 0
0.000008 0.000001 0
0.000008 -0.000000 0
0.000007 -0.000001 0
0.000007 -0.000001 0
0.000006 -0.000001 0
0.000006 -0.000001 0
0.000006 -0.000000 0
0.000006 -0.000000 0
0.000000 0.000000 0
-0.000001 -0.000002 0
-0.000002 -0.000002 0
-0.000003 -0.000001 0
-0.000004 -0.000001 0
-0.000004 0.000000 0
-0.000004 0.000001 0
-0.000003 0.000003 0
-0.000001 0.000003 0
0.000001 0.000004 0
0.000004 0.000004 0
0.000006 0.000003 0
0.000007 0.000002 0
0.000007 0.000001 0
0.000007 0.000000 0
0.000007 -0.000000 0
0.000007 -0.000000 0
0.000006 -0.000001 0
0.000006 -0.000000 0
0.000006 -0.000000 0
0.000006 -0.000000 0
0.000000 0.000000 0
-0.000001 -0.000001 0
-0.000002 -0.000001 0
-0.000002 -0.000001 0
-0.000003 -0.000000 0
-0.000003 0.000000 0
-0.000003 0.000001 0
-0.000002 0.000001 0
-0.000001 0.000002 0
0.000001 0.000002 0
0.000003 0.000002 0
0.000005 0.000001 0
0.000006 0.000001 0
0.000007 0.000000 0
0.000007 0.000000 0
0.000007 -0.000000 0
0.000007 -0.000000 0
0.000006 -0.000000 0
0.000006 -0.000000 0
0.000006 -0.000000 0
0.000006 -0.000000 0
0.000000 0.000000 0
-0.000000 0.000000 0
0.000000 0.000000 0
0.000000 0.000000 0
0.000000 0.000000 0
-0.000000 0.000000 0
-0.000000 0.000000 0
-0.000000 0.000000 0
-0.000000 0.000000 0
-0.000000 0.000000 0
0.000000 0.000000 0
0.000000 0.000000 0
0.000000 0.000000 0
0.000000 0.000000 0
0.000000 0.000000 0
0.000000 0.000000 0
0.000000 0.000000 0
0.000000 0.000000 0
0.000000 0.000000 0
0.000000 0.000000 0
0.000000 0.000000 0

CELL_DATA 400 
SCALARS pressure float 1 
LOOKUP_TABLE default 
0.242665
0.242646
0.242600
0.242569
0.242571
0.242598
0.242631
0.242652
0.242655
0.242643
0.242627
0.242615
0.242611
0.242612
0.242616
0.242620
0.242622
0.242623
0.242623
0.242623
0.219620
0.219596
0.219601
0.219622
0.219642
0.219649
0.219641
0.219627
0.219614
0.219608
0.219609
0.219615
0.219620
0.219623
0.219624
0.219624
0.219623
0.219623
0.219622
0.219623
0.196591
0.196618
0.196648
0.196657
0.196643
0.196619
0.196600
0.196594
0.196601
0.196613
0.196624
0.196629
0.196629
0.196626
0.196623
0.196621
0.196621
0.196621
0.196622
0.196622
0.173616
0.173641
0.173644
0.173628
0.173608
0.173597
0.173599
0.173609
0.173621
0.173629
0.173631
0.173628
0.173624
0.173621
0.173620
0.173620
0.173621
0.173622
0.173622
0.173622
0.150630
0.150625
0.150616
0.150611
0.150613
0.150618
0.150624
0.150626
0.150625
0.150623
0.150621
0.150620
0.150620
0.150620
0.150621
0.150622
0.150622
0.150622
0.150622
0.150623
0.127616
0.127610
0.127617
0.127627
0.127633
0.127632
0.127626
0.127619
0.127614
0.127614
0.127617
0.127620
0.127622
0.127623
0.127623
0.127622
0.127622
0.127622
0.127622
0.127622
0.104609
0.104618
0.104629
0.104634
0.104631
0.104623
0.104616
0.104612
0.104613
0.104617
0.104620
0.104623
0.104623
0.104623
0.104622
0.104622
0.104622
0.104622
0.104622
0.104622
0.081619
0.081624
0.081626
0.081624
0.081621
0.081618
0.081617
0.081618
0.081619
0.081620
0.081621
0.081622
0.081622
0.081622
0.081622
0.081622
0.081622
0.081622
0.081622
0.081622
0.058624
0.058620
0.058618
0.058620
0.058622
0.058624
0.058624
0.058622
0.058621
0.058619
0.058619
0.058620
0.058621
0.058622
0.058622
0.058622
0.058622
0.058622
0.058622
0.058623
0.035621
0.035617
0.035619
0.035623
0.035627
0.035627
0.035625
0.035622
0.035619
0.035619
0.035619
0.035621
0.035622
0.035622
0.035623
0.035623
0.035623
0.035623
0.035623
0.035623
0.012621
0.012620
0.012623
0.012625
0.012625
0.012625
0.012623
0.012622
0.012621
0.012621
0.012621
0.012622
0.012623
0.012623
0.012623
0.012623
0.012623
0.012623
0.012623
0.012623
-0.010377
-0.010377
-0.010378
-0.010378
-0.010377
-0.010376
-0.010376
-0.010376
-0.010377
-0.010377
-0.010377
-0.010377
-0.010377
-0.010377
-0.010377
-0.010377
-0.010377
-0.010377
-0.010377
-0.010377
-0.033375
-0.033377
-0.033379
-0.033378
-0.033377
-0.033375
-0.033374
-0.033374
-0.033375
-0.033376
-0.033376
-0.033377
-0.033377
-0.033377
-0.033377
-0.033377
-0.033377
-0.033377
-0.033377
-0.033377
-0.056375
-0.056377
-0.056378
-0.056377
-0.056376
-0.056374
-0.056374
-0.056374
-0.056374
-0.056375
-0.056376
-0.056376
-0.056376
-0.056376
-0.056376
-0.056377
-0.056377
-0.056377
-0.056377
-0.056377
-0.079376
-0.079377
-0.079377
-0.079376
-0.079376
-0.079375
-0.079374
-0.079374
-0.079374
-0.079375
-0.079375
-0.079376
-0.079376
-0.079376
-0.079376
-0.079376
-0.079377
-0.079377
-0.079377
-0.079377
-0.102375
-0.102376
-0.102376
-0.102376
-0.102376
-0.102375
-0.102375
-0.102374
-0.102374
-0.102374
-0.102375
-0.102375
-0.102376
-0.102376
-0.102376
-0.102376
-0.102377
-0.102377
-0.102377
-0.102377
-0.125375
-0.125375
-0.125376
-0.125376
-0.125376
-0.125375
-0.125375
-0.125374
-0.125374
-0.125374
-0.125375
-0.125375
-0.125376
-0.125376
-0.125376
-0.125376
-0.125377
-0.125377
-0.125377
-0.125377
-0.148375
-0.148375
-0.148376
-0.148376
-0.148376
-0.148375
-0.148375
-0.148374
-0.148374
-0.148375
-0.148375
-0.148375
-0.148376
-0.148376
-0.148376
-0.148376
-0.148377
-0.148377
-0.148377
-0.148377
-0.171375
-0.171375
-0.171376
-0.171376
-0.171376
-0.171375
-0.171375
-0.171375
-0.171375
-0.171375
-0.171375
-0.171375
-0.171376
-0.171376
-0.171376
-0.171376
-0.171377
-0.171377
-0.171377
-0.171377
-0.194375
-0.194375
-0.194375
-0.194376
-0.194376
-0.194376
-0.194375
-0.194375
-0.194375
-0.194375
-0.194375
-0.194375
-0.194376
-0.194376
-0.194376
-0.194376
-0.194377
-0.194377
-0.194377
-0.194377

SCALARS temperature float 1 
LOOKUP_TABLE default 
0.000000
0.000000
0.000001
0.000001
0.000003
0.000005
0.000008
0.000010
0.000012
0.000012
0.000011
0.000009
0.000006
0.000004
0.000002
0.000001
0.000000
0.000000
0.000000
0.000000
0.000000
0.000000
0.000001
0.000003
0.000006
0.000011
0.000016
0.000021
0.000025
0.000025
0.000022
0.000017
0.000012
0.000007
0.000004
0.000002
0.000001
0.000000
0.000000
0.000000
0.000000
0.000001
0.000003
0.000008
0.000016
0.000028
0.000043
0.000057
0.000067
0.000067
0.000059
0.000046
0.000031
0.000019
0.000010
0.000005
0.000002
0.000001
0.000000
0.000000
0.000000
0.000002
0.000009
0.000021
0.000044
0.000078
0.000119
0.000160
0.000185
0.000186
0.000163
0.000125
0.000084
0.000050
0.000026
0.000013
0.000006
0.000002
0.000001
0.000001
0.000001
0.000006
0.000021
0.000054
0.000112
0.000200
0.000310
0.000417
0.000485
0.000487
0.000424
0.000320
0.000212
0.000124
0.000065
0.000030
0.000013
0.000005
0.000002
0.000001
0.000001
0.000014
0.000048
0.000122
0.000258
0.000468
0.000735
0.000999
0.001167
0.001169
0.001007
0.000750
0.000488
0.000280
0.000143
0.000066
0.000028
0.000011
0.000005
0.000003
0.000003
0.000028
0.000097
0.000248
0.000532
0.000982
0.001569
0.002160
0.002540
0.002541
0.002166
0.001586
0.001010
0.000567
0.000285
0.000129
0.000054
0.000021
0.000009
0.000005
0.000005
0.000048
0.000171
0.000446
0.000971
0.001829
0.002983
0.004173
0.004950
0.004944
0.004164
0.002990
0.001861
0.001021
0.000502
0.000224
0.000092
0.000036
0.000015
0.000008
0.000007
0.000075
0.000266
0.000700
0.001553
0.002983
0.004969
0.007077
0.008479
0.008458
0.007037
0.004952
0.003010
0.001614
0.000777
0.000341
0.000138
0.000054
0.000022
0.000011
0.000010
0.000100
0.000358
0.000953
0.002142
0.004186
0.007103
0.010283
0.012434
0.012395
0.010203
0.007053
0.004202
0.002211
0.001048
0.000454
0.000183
0.000070
0.000028
0.000015
0.000011
0.000116
0.000416
0.001112
0.002518
0.004967
0.008516
0.012443
0.015129
0.015078
0.012339
0.008447
0.004976
0.002592
0.001219
0.000525
0.000210
0.000081
0.000032
0.000017
0.000011
0.000116
0.000415
0.001109
0.002505
0.004931
0.008439
0.012315
0.014964
0.014918
0.012221
0.008380
0.004947
0.002583
0.001217
0.000525
0.000211
0.000081
0.000033
0.000017
0.000010
0.000100
0.000357
0.000946
0.002113
0.004107
0.006934
0.010002
0.012076
0.012046
0.009945
0.006908
0.004139
0.002192
0.001046
0.000456
0.000185
0.000072
0.000029
0.000015
0.000007
0.000075
0.000266
0.000696
0.001528
0.002911
0.004814
0.006822
0.008156
0.008145
0.006805
0.004821
0.002955
0.001600
0.000779
0.000345
0.000142
0.000056
0.000023
0.000012
0.000005
0.000050
0.000174
0.000447
0.000963
0.001794
0.002899
0.004031
0.004770
0.004770
0.004037
0.002923
0.001839
0.001022
0.000509
0.000231
0.000097
0.000039
0.000016
0.000009
0.000003
0.000029
0.000101
0.000256
0.000540
0.000983
0.001555
0.002124
0.002491
0.002495
0.002138
0.001581
0.001020
0.000581
0.000297
0.000138
0.000059
0.000024
0.000010
0.000006
0.000002
0.000016
0.000053
0.000133
0.000275
0.000492
0.000763
0.001028
0.001196
0.001201
0.001041
0.000784
0.000517
0.000302
0.000158
0.000075
0.000033
0.000014
0.000006
0.000003
0.000001
0.000008
0.000027
0.000065
0.000133
0.000234
0.000357
0.000476
0.000551
0.000554
0.000485
0.000371
0.000250
0.000149
0.000080
0.000039
0.000017
0.000007
0.000003
0.000002
0.000000
0.000004
0.000014
0.000033
0.000067
0.000116
0.000175
0.000231
0.000266
0.000268
0.000237
0.000184
0.000126
0.000077
0.000042
0.000021
0.000009
0.000004
0.000002
0.000001
0.000000
0.000003
0.000009
0.000021
0.000042
0.000072
0.000108
0.000142
0.000163
0.000165
0.000147
0.000115
0.000079
0.000049
0.000027
0.000014
0.000006
0.000003
0.000001
0.000001


SCALARS Species_1 float 1 
LOOKUP_TABLE default 
0.000070
0.000233
0.000471
0.000833
0.001368
0.002115
0.003085
0.004249
0.005521
0.006769
0.007829
0.008544
0.008803
0.008573
0.007909
0.006946
0.005862
0.004848
0.004071
0.003650
0.000084
0.000280
0.000563
0.000992
0.001624
0.002503
0.003641
0.005001
0.006484
0.007933
0.009160
0.009983
0.010275
0.009999
0.009222
0.008100
0.006840
0.005662
0.004760
0.004273
0.000109
0.000364
0.000730
0.001283
0.002094
0.003218
0.004668
0.006394
0.008271
0.010099
0.011639
0.012665
0.013019
0.012657
0.011665
0.010241
0.008647
0.007162
0.006026
0.005413
0.000144
0.000479
0.000959
0.001680
0.002734
0.004191
0.006065
0.008290
0.010701
0.013043
0.015008
0.016309
0.016745
0.016263
0.014979
0.013144
0.011098
0.009194
0.007740
0.006957
0.000184
0.000612
0.001223
0.002139
0.003474
0.005313
0.007673
0.010469
0.013491
0.016418
0.018868
0.020480
0.021008
0.020390
0.018770
0.016467
0.013904
0.011523
0.009706
0.008729
0.000225
0.000748
0.001491
0.002601
0.004217
0.006437
0.009280
0.012641
0.016267
0.019773
0.022699
0.024617
0.025234
0.024480
0.022528
0.019763
0.016691
0.013839
0.011665
0.010496
0.000260
0.000865
0.001722
0.002999
0.004852
0.007395
0.010646
0.014482
0.018616
0.022605
0.025929
0.028101
0.028792
0.027923
0.025694
0.022543
0.019046
0.015801
0.013329
0.012000
0.000285
0.000945
0.001879
0.003267
0.005279
0.008034
0.011551
0.015696
0.020157
0.024457
0.028036
0.030371
0.031109
0.030166
0.027761
0.024363
0.020594
0.017098
0.014435
0.013004
0.000294
0.000975
0.001936
0.003362
0.005425
0.008245
0.011842
0.016077
0.020630
0.025016
0.028664
0.031043
0.031794
0.030833
0.028381
0.024919
0.021077
0.017514
0.014799
0.013341
0.000286
0.000949
0.001883
0.003266
0.005264
0.007994
0.011470
0.015561
0.019956
0.024189
0.027710
0.030006
0.030734
0.029811
0.027452
0.024117
0.020416
0.016980
0.014363
0.012956
0.000263
0.000873
0.001730
0.002998
0.004827
0.007324
0.010501
0.014239
0.018253
0.022119
0.025336
0.027437
0.028109
0.027276
0.025131
0.022095
0.018721
0.015588
0.013198
0.011914
0.000229
0.000758
0.001502
0.002601
0.004185
0.006346
0.009094
0.012326
0.015797
0.019141
0.021926
0.023749
0.024340
0.023631
0.021788
0.019173
0.016262
0.013556
0.011491
0.010380
0.000188
0.000623
0.001234
0.002136
0.003435
0.005205
0.007456
0.010103
0.012947
0.015689
0.017975
0.019477
0.019972
0.019403
0.017905
0.015772
0.013393
0.011179
0.009487
0.008576
0.000146
0.000485
0.000960
0.001661
0.002671
0.004045
0.005794
0.007851
0.010061
0.012194
0.013976
0.015151
0.015546
0.015116
0.013963
0.012313
0.010470
0.008751
0.007436
0.006727
0.000108
0.000358
0.000709
0.001226
0.001971
0.002985
0.004275
0.005792
0.007424
0.009001
0.010322
0.011197
0.011498
0.011190
0.010348
0.009137
0.007780
0.006512
0.005541
0.005016
0.000076
0.000252
0.000498
0.000861
0.001384
0.002096
0.003002
0.004068
0.005217
0.006328
0.007260
0.007882
0.008101
0.007893
0.007308
0.006462
0.005510
0.004620
0.003936
0.003566
0.000051
0.000169
0.000335
0.000579
0.000930
0.001409
0.002019
0.002737
0.003511
0.004262
0.004894
0.005318
0.005472
0.005338
0.004949
0.004383
0.003744
0.003144
0.002682
0.002432
0.000033
0.000110
0.000219
0.000378
0.000608
0.000922
0.001322
0.001793
0.002303
0.002797
0.003216
0.003499
0.003605
0.003521
0.003270
0.002901
0.002482
0.002088
0.001784
0.001619
0.000022
0.000074
0.000146
0.000252
0.000406
0.000616
0.000884
0.001200
0.001543
0.001877
0.002160
0.002354
0.002429
0.002376
0.002210
0.001964
0.001684
0.001419
0.001214
0.001102
0.000017
0.000056
0.000111
0.000192
0.000309
0.000469
0.000674
0.000917
0.001179
0.001436
0.001655
0.001805
0.001865
0.001827
0.001702
0.001514
0.001300
0.001096
0.000939
0.000853


SCALARS Species_2 float 1 
LOOKUP_TABLE default 
0.000056
0.000165
0.000265
0.000346
0.000403
0.000430
0.000427
0.000398
0.000349
0.000288
0.000225
0.000167
0.000117
0.000078
0.000049
0.000030
0.000017
0.000010
0.000006
0.000004
0.000085
0.000249
0.000398
0.000520
0.000604
0.000644
0.000639
0.000594
0.000520
0.000429
0.000335
0.000248
0.000174
0.000116
0.000074
0.000045
0.000026
0.000015
0.000008
0.000005
0.000148
0.000436
0.000695
0.000906
0.001050
0.001117
0.001106
0.001027
0.000897
0.000740
0.000578
0.000427
0.000299
0.000200
0.000127
0.000077
0.000044