# vtk DataFile Version 2.0
generated by CFD-lab course output (written by Tobias Neckel) 
ASCII

DATASET STRUCTURED_GRID
DIMENSIONS  21 21 1 
POINTS 441 float

0.000000 0.000000 0
0.100000 0.000000 0
0.200000 0.000000 0
0.300000 0.000000 0
0.400000 0.000000 0
0.500000 0.000000 0
0.600000 0.000000 0
0.700000 0.000000 0
0.800000 0.000000 0
0.900000 0.000000 0
1.000000 0.000000 0
1.100000 0.000000 0
1.200000 0.000000 0
1.300000 0.000000 0
1.400000 0.000000 0
1.500000 0.000000 0
1.600000 0.000000 0
1.700000 0.000000 0
1.800000 0.000000 0
1.900000 0.000000 0
2.000000 0.000000 0
0.000000 0.100000 0
0.100000 0.100000 0
0.200000 0.100000 0
0.300000 0.100000 0
0.400000 0.100000 0
0.500000 0.100000 0
0.600000 0.100000 0
0.700000 0.100000 0
0.800000 0.100000 0
0.900000 0.100000 0
1.000000 0.100000 0
1.100000 0.100000 0
1.200000 0.100000 0
1.300000 0.100000 0
1.400000 0.100000 0
1.500000 0.100000 0
1.600000 0.100000 0
1.700000 0.100000 0
1.800000 0.100000 0
1.900000 0.100000 0
2.000000 0.100000 0
0.000000 0.200000 0
0.100000 0.200000 0
0.200000 0.200000 0
0.300000 0.200000 0
0.400000 0.200000 0
0.500000 0.200000 0
0.600000 0.200000 0
0.700000 0.200000 0
0.800000 0.200000 0
0.900000 0.200000 0
1.000000 0.200000 0
1.100000 0.200000 0
1.200000 0.200000 0
1.300000 0.200000 0
1.400000 0.200000 0
1.500000 0.200000 0
1.600000 0.200000 0
1.700000 0.200000 0
1.800000 0.200000 0
1.900000 0.200000 0
2.000000 0.200000 0
0.000000 0.300000 0
0.100000 0.300000 0
0.200000 0.300000 0
0.300000 0.300000 0
0.400000 0.300000 0
0.500000 0.300000 0
0.600000 0.300000 0
0.700000 0.300000 0
0.800000 0.300000 0
0.900000 0.300000 0
1.000000 0.300000 0
1.100000 0.300000 0
1.200000 0.300000 0
1.300000 0.300000 0
1.400000 0.300000 0
1.500000 0.300000 0
1.600000 0.300000 0
1.700000 0.300000 0
1.800000 0.300000 0
1.900000 0.300000 0
2.000000 0.300000 0
0.000000 0.400000 0
0.100000 0.400000 0
0.200000 0.400000 0
0.300000 0.400000 0
0.400000 0.400000 0
0.500000 0.400000 0
0.600000 0.400000 0
0.700000 0.400000 0
0.800000 0.400000 0
0.900000 0.400000 0
1.000000 0.400000 0
1.100000 0.400000 0
1.200000 0.400000 0
1.300000 0.400000 0
1.400000 0.400000 0
1.500000 0.400000 0
1.600000 0.400000 0
1.700000 0.400000 0
1.800000 0.400000 0
1.900000 0.400000 0
2.000000 0.400000 0
0.000000 0.500000 0
0.100000 0.500000 0
0.200000 0.500000 0
0.300000 0.500000 0
0.400000 0.500000 0
0.500000 0.500000 0
0.600000 0.500000 0
0.700000 0.500000 0
0.800000 0.500000 0
0.900000 0.500000 0
1.000000 0.500000 0
1.100000 0.500000 0
1.200000 0.500000 0
1.300000 0.500000 0
1.400000 0.500000 0
1.500000 0.500000 0
1.600000 0.500000 0
1.700000 0.500000 0
1.800000 0.500000 0
1.900000 0.500000 0
2.000000 0.500000 0
0.000000 0.600000 0
0.100000 0.600000 0
0.200000 0.600000 0
0.300000 0.600000 0
0.400000 0.600000 0
0.500000 0.600000 0
0.600000 0.600000 0
0.700000 0.600000 0
0.800000 0.600000 0
0.900000 0.600000 0
1.000000 0.600000 0
1.100000 0.600000 0
1.200000 0.600000 0
1.300000 0.600000 0
1.400000 0.600000 0
1.500000 0.600000 0
1.600000 0.600000 0
1.700000 0.600000 0
1.800000 0.600000 0
1.900000 0.600000 0
2.000000 0.600000 0
0.000000 0.700000 0
0.100000 0.700000 0
0.200000 0.700000 0
0.300000 0.700000 0
0.400000 0.700000 0
0.500000 0.700000 0
0.600000 0.700000 0
0.700000 0.700000 0
0.800000 0.700000 0
0.900000 0.700000 0
1.000000 0.700000 0
1.100000 0.700000 0
1.200000 0.700000 0
1.300000 0.700000 0
1.400000 0.700000 0
1.500000 0.700000 0
1.600000 0.700000 0
1.700000 0.700000 0
1.800000 0.700000 0
1.900000 0.700000 0
2.000000 0.700000 0
0.000000 0.800000 0
0.100000 0.800000 0
0.200000 0.800000 0
0.300000 0.800000 0
0.400000 0.800000 0
0.500000 0.800000 0
0.600000 0.800000 0
0.700000 0.800000 0
0.800000 0.800000 0
0.900000 0.800000 0
1.000000 0.800000 0
1.100000 0.800000 0
1.200000 0.800000 0
1.300000 0.800000 0
1.400000 0.800000 0
1.500000 0.800000 0
1.600000 0.800000 0
1.700000 0.800000 0
1.800000 0.800000 0
1.900000 0.800000 0
2.000000 0.800000 0
0.000000 0.900000 0
0.100000 0.900000 0
0.200000 0.900000 0
0.300000 0.900000 0
0.400000 0.900000 0
0.500000 0.900000 0
0.600000 0.900000 0
0.700000 0.900000 0
0.800000 0.900000 0
0.900000 0.900000 0
1.000000 0.900000 0
1.100000 0.900000 0
1.200000 0.900000 0
1.300000 0.900000 0
1.400000 0.900000 0
1.500000 0.900000 0
1.600000 0.900000 0
1.700000 0.900000 0
1.800000 0.900000 0
1.900000 0.900000 0
2.000000 0.900000 0
0.000000 1.000000 0
0.100000 1.000000 0
0.200000 1.000000 0
0.300000 1.000000 0
0.400000 1.000000 0
0.500000 1.000000 0
0.600000 1.000000 0
0.700000 1.000000 0
0.800000 1.000000 0
0.900000 1.000000 0
1.000000 1.000000 0
1.100000 1.000000 0
1.200000 1.000000 0
1.300000 1.000000 0
1.400000 1.000000 0
1.500000 1.000000 0
1.600000 1.000000 0
1.700000 1.000000 0
1.800000 1.000000 0
1.900000 1.000000 0
2.000000 1.000000 0
0.000000 1.100000 0
0.100000 1.100000 0
0.200000 1.100000 0
0.300000 1.100000 0
0.400000 1.100000 0
0.500000 1.100000 0
0.600000 1.100000 0
0.700000 1.100000 0
0.800000 1.100000 0
0.900000 1.100000 0
1.000000 1.100000 0
1.100000 1.100000 0
1.200000 1.100000 0
1.300000 1.100000 0
1.400000 1.100000 0
1.500000 1.100000 0
1.600000 1.100000 0
1.700000 1.100000 0
1.800000 1.100000 0
1.900000 1.100000 0
2.000000 1.100000 0
0.000000 1.200000 0
0.100000 1.200000 0
0.200000 1.200000 0
0.300000 1.200000 0
0.400000 1.200000 0
0.500000 1.200000 0
0.600000 1.200000 0
0.700000 1.200000 0
0.800000 1.200000 0
0.900000 1.200000 0
1.000000 1.200000 0
1.100000 1.200000 0
1.200000 1.200000 0
1.300000 1.200000 0
1.400000 1.200000 0
1.500000 1.200000 0
1.600000 1.200000 0
1.700000 1.200000 0
1.800000 1.200000 0
1.900000 1.200000 0
2.000000 1.200000 0
0.000000 1.300000 0
0.100000 1.300000 0
0.200000 1.300000 0
0.300000 1.300000 0
0.400000 1.300000 0
0.500000 1.300000 0
0.600000 1.300000 0
0.700000 1.300000 0
0.800000 1.300000 0
0.900000 1.300000 0
1.000000 1.300000 0
1.100000 1.300000 0
1.200000 1.300000 0
1.300000 1.300000 0
1.400000 1.300000 0
1.500000 1.300000 0
1.600000 1.300000 0
1.700000 1.300000 0
1.800000 1.300000 0
1.900000 1.300000 0
2.000000 1.300000 0
0.000000 1.400000 0
0.100000 1.400000 0
0.200000 1.400000 0
0.300000 1.400000 0
0.400000 1.400000 0
0.500000 1.400000 0
0.600000 1.400000 0
0.700000 1.400000 0
0.800000 1.400000 0
0.900000 1.400000 0
1.000000 1.400000 0
1.100000 1.400000 0
1.200000 1.400000 0
1.300000 1.400000 0
1.400000 1.400000 0
1.500000 1.400000 0
1.600000 1.400000 0
1.700000 1.400000 0
1.800000 1.400000 0
1.900000 1.400000 0
2.000000 1.400000 0
0.000000 1.500000 0
0.100000 1.500000 0
0.200000 1.500000 0
0.300000 1.500000 0
0.400000 1.500000 0
0.500000 1.500000 0
0.600000 1.500000 0
0.700000 1.500000 0
0.800000 1.500000 0
0.900000 1.500000 0
1.000000 1.500000 0
1.100000 1.500000 0
1.200000 1.500000 0
1.300000 1.500000 0
1.400000 1.500000 0
1.500000 1.500000 0
1.600000 1.500000 0
1.700000 1.500000 0
1.800000 1.500000 0
1.900000 1.500000 0
2.000000 1.500000 0
0.000000 1.600000 0
0.100000 1.600000 0
0.200000 1.600000 0
0.300000 1.600000 0
0.400000 1.600000 0
0.500000 1.600000 0
0.600000 1.600000 0
0.700000 1.600000 0
0.800000 1.600000 0
0.900000 1.600000 0
1.000000 1.600000 0
1.100000 1.600000 0
1.200000 1.600000 0
1.300000 1.600000 0
1.400000 1.600000 0
1.500000 1.600000 0
1.600000 1.600000 0
1.700000 1.600000 0
1.800000 1.600000 0
1.900000 1.600000 0
2.000000 1.600000 0
0.000000 1.700000 0
0.100000 1.700000 0
0.200000 1.700000 0
0.300000 1.700000 0
0.400000 1.700000 0
0.500000 1.700000 0
0.600000 1.700000 0
0.700000 1.700000 0
0.800000 1.700000 0
0.900000 1.700000 0
1.000000 1.700000 0
1.100000 1.700000 0
1.200000 1.700000 0
1.300000 1.700000 0
1.400000 1.700000 0
1.500000 1.700000 0
1.600000 1.700000 0
1.700000 1.700000 0
1.800000 1.700000 0
1.900000 1.700000 0
2.000000 1.700000 0
0.000000 1.800000 0
0.100000 1.800000 0
0.200000 1.800000 0
0.300000 1.800000 0
0.400000 1.800000 0
0.500000 1.800000 0
0.600000 1.800000 0
0.700000 1.800000 0
0.800000 1.800000 0
0.900000 1.800000 0
1.000000 1.800000 0
1.100000 1.800000 0
1.200000 1.800000 0
1.300000 1.800000 0
1.400000 1.800000 0
1.500000 1.800000 0
1.600000 1.800000 0
1.700000 1.800000 0
1.800000 1.800000 0
1.900000 1.800000 0
2.000000 1.800000 0
0.000000 1.900000 0
0.100000 1.900000 0
0.200000 1.900000 0
0.300000 1.900000 0
0.400000 1.900000 0
0.500000 1.900000 0
0.600000 1.900000 0
0.700000 1.900000 0
0.800000 1.900000 0
0.900000 1.900000 0
1.000000 1.900000 0
1.100000 1.900000 0
1.200000 1.900000 0
1.300000 1.900000 0
1.400000 1.900000 0
1.500000 1.900000 0
1.600000 1.900000 0
1.700000 1.900000 0
1.800000 1.900000 0
1.900000 1.900000 0
2.000000 1.900000 0
0.000000 2.000000 0
0.100000 2.000000 0
0.200000 2.000000 0
0.300000 2.000000 0
0.400000 2.000000 0
0.500000 2.000000 0
0.600000 2.000000 0
0.700000 2.000000 0
0.800000 2.000000 0
0.900000 2.000000 0
1.000000 2.000000 0
1.100000 2.000000 0
1.200000 2.000000 0
1.300000 2.000000 0
1.400000 2.000000 0
1.500000 2.000000 0
1.600000 2.000000 0
1.700000 2.000000 0
1.800000 2.000000 0
1.900000 2.000000 0
2.000000 2.000000 0
POINT_DATA 441 

VECTORS velocity float
0.000000 0.000000 0
-0.000003 0.000000 0
0.000003 0.000000 0
0.000006 0.000000 0
0.000005 0.000000 0
0.000001 0.000000 0
-0.000003 0.000000 0
-0.000005 0.000000 0
-0.000004 0.000000 0
-0.000002 0.000000 0
0.000001 0.000000 0
0.000002 0.000000 0
0.000002 0.000000 0
0.000001 0.000000 0
0.000000 0.000000 0
-0.000000 0.000000 0
-0.000000 0.000000 0
-0.000000 0.000000 0
-0.000000 0.000000 0
-0.000000 0.000000 0
0.000000 0.000000 0
0.000000 0.000001 0
0.000002 0.000005 0
0.000004 0.000008 0
0.000004 0.000003 0
0.000001 -0.000005 0
-0.000001 -0.000010 0
-0.000002 -0.000010 0
-0.000002 -0.000006 0
-0.000001 0.000001 0
-0.000000 0.000005 0
-0.000000 0.000006 0
-0.000001 0.000005 0
-0.000002 0.000003 0
-0.000003 0.000000 0
-0.000003 -0.000001 0
-0.000004 -0.000001 0
-0.000003 -0.000001 0
-0.000003 -0.000001 0
-0.000003 -0.000000 0
-0.000003 -0.000000 0
-0.000003 -0.000000 0
0.000000 0.000007 0
0.000002 0.000004 0
-0.000000 -0.000003 0
-0.000002 -0.000008 0
-0.000001 -0.000008 0
0.000000 -0.000004 0
0.000002 0.000002 0
0.000003 0.000006 0
0.000002 0.000008 0
-0.000000 0.000006 0
-0.000002 0.000003 0
-0.000003 0.000000 0
-0.000004 -0.000001 0
-0.000004 -0.000001 0
-0.000003 -0.000001 0
-0.000003 -0.000000 0
-0.000003 0.000000 0
-0.000003 0.000000 0
-0.000003 0.000000 0
-0.000003 0.000000 0
-0.000003 -0.000000 0
0.000000 0.000000 0
-0.000003 -0.000004 0
-0.000003 -0.000006 0
-0.000001 -0.000002 0
0.000002 0.000003 0
0.000005 0.000006 0
0.000005 0.000007 0
0.000003 0.000005 0
-0.000000 0.000002 0
-0.000002 -0.000001 0
-0.000003 -0.000001 0
-0.000004 -0.000001 0
-0.000004 0.000000 0
-0.000003 0.000001 0
-0.000003 0.000001 0
-0.000003 0.000001 0
-0.000003 0.000000 0
-0.000003 0.000000 0
-0.000003 -0.000000 0
-0.000003 -0.000000 0
-0.000003 -0.000000 0
0.000000 -0.000005 0
-0.000002 -0.000004 0
0.000000 0.000001 0
0.000003 0.000004 0
0.000004 0.000005 0
0.000004 0.000002 0
0.000003 -0.000000 0
0.000001 -0.000002 0
-0.000001 -0.000001 0
-0.000002 0.000001 0
-0.000003 0.000003 0
-0.000003 0.000004 0
-0.000003 0.000003 0
-0.000004 0.000002 0
-0.000004 0.000001 0
-0.000004 0.000000 0
-0.000004 -0.000000 0
-0.000003 -0.000001 0
-0.000003 -0.000001 0
-0.000003 -0.000000 0
-0.000003 -0.000000 0
0.000000 -0.000001 0
0.000002 0.000000 0
0.000003 0.000001 0
0.000002 -0.000000 0
0.000002 -0.000003 0
0.000002 -0.000004 0
0.000002 -0.000002 0
0.000002 0.000001 0
0.000001 0.000004 0
-0.000000 0.000006 0
-0.000002 0.000006 0
-0.000004 0.000005 0
-0.000005 0.000003 0
-0.000005 0.000001 0
-0.000005 -0.000000 0
-0.000004 -0.000001 0
-0.000004 -0.000001 0
-0.000003 -0.000001 0
-0.000003 -0.000001 0
-0.000003 -0.000000 0
-0.000003 -0.000000 0
0.000000 0.000003 0
0.000003 -0.000001 0
0.000001 -0.000004 0
0.000001 -0.000005 0
0.000002 -0.000004 0
0.000004 -0.000001 0
0.000005 0.000003 0
0.000005 0.000006 0
0.000003 0.000008 0
-0.000000 0.000008 0
-0.000003 0.000006 0
-0.000005 0.000004 0
-0.000006 0.000002 0
-0.000006 0.000000 0
-0.000005 -0.000000 0
-0.000004 -0.000001 0
-0.000004 -0.000001 0
-0.000003 -0.000001 0
-0.000003 -0.000001 0
-0.000003 -0.000001 0
-0.000003 -0.000000 0
0.000000 0.000000 0
0.000000 -0.000005 0
0.000000 -0.000005 0
0.000002 -0.000004 0
0.000004 -0.000001 0
0.000006 0.000001 0
0.000007 0.000004 0
0.000006 0.000006 0
0.000003 0.000008 0
-0.000001 0.000009 0
-0.000004 0.000008 0
-0.000007 0.000005 0
-0.000007 0.000003 0
-0.000006 0.000001 0
-0.000005 -0.000001 0
-0.000004 -0.000001 0
-0.000004 -0.000002 0
-0.000003 -0.000001 0
-0.000003 -0.000001 0
-0.000002 -0.000001 0
-0.000002 -0.000001 0
0.000000 -0.000002 0
0.000000 -0.000006 0
0.000002 -0.000004 0
0.000003 -0.000003 0
0.000005 -0.000002 0
0.000006 -0.000001 0
0.000007 0.000001 0
0.000006 0.000006 0
0.000004 0.000011 0
-0.000000 0.000013 0
-0.000004 0.000012 0
-0.000007 0.000008 0
-0.000007 0.000003 0
-0.000007 -0.000000 0
-0.000005 -0.000002 0
-0.000004 -0.000003 0
-0.000003 -0.000002 0
-0.000003 -0.000002 0
-0.000002 -0.000001 0
-0.000002 -0.000001 0
-0.000002 -0.000001 0
0.000000 -0.000000 0
0.000001 -0.000005 0
0.000002 -0.000005 0
0.000002 -0.000006 0
0.000003 -0.000006 0
0.000005 -0.000004 0
0.000006 0.000001 0
0.000006 0.000008 0
0.000004 0.000015 0
0.000000 0.000019 0
-0.000004 0.000016 0
-0.000006 0.000009 0
-0.000007 0.000003 0
-0.000006 -0.000002 0
-0.000004 -0.000004 0
-0.000003 -0.000004 0
-0.000002 -0.000003 0
-0.000002 -0.000002 0
-0.000002 -0.000002 0
-0.000001 -0.000001 0
-0.000001 -0.000001 0
0.000000 0.000001 0
0.000001 -0.000006 0
0.000001 -0.000007 0
0.000001 -0.000008 0
0.000002 -0.000007 0
0.000003 -0.000004 0
0.000004 0.000001 0
0.000004 0.000010 0
0.000003 0.000018 0
0.000000 0.000022 0
-0.000002 0.000018 0
-0.000004 0.000010 0
-0.000004 0.000002 0
-0.000003 -0.000003 0
-0.000002 -0.000005 0
-0.000002 -0.000005 0
-0.000001 -0.000004 0
-0.000001 -0.000003 0
-0.000001 -0.000002 0
-0.000001 -0.000001 0
-0.000001 -0.000001 0
0.000000 -0.000000 0
0.000000 -0.000007 0
-0.000000 -0.000007 0
-0.000000 -0.000007 0
-0.000000 -0.000006 0
-0.000000 -0.000004 0
0.000000 0.000001 0
0.000000 0.000010 0
0.000000 0.000019 0
0.000000 0.000023 0
0.000000 0.000019 0
0.000000 0.000010 0
0.000000 0.000002 0
0.000000 -0.000003 0
0.000000 -0.000005 0
0.000000 -0.000005 0
0.000000 -0.000004 0
0.000000 -0.000003 0
0.000000 -0.000002 0
0.000000 -0.000001 0
0.000000 -0.000001 0
0.000000 -0.000001 0
-0.000000 -0.000006 0
-0.000001 -0.000006 0
-0.000001 -0.000006 0
-0.000002 -0.000006 0
-0.000003 -0.000004 0
-0.000004 0.000001 0
-0.000004 0.000009 0
-0.000002 0.000018 0
0.000000 0.000021 0
0.000003 0.000018 0
0.000004 0.000010 0
0.000004 0.000002 0
0.000004 -0.000003 0
0.000003 -0.000005 0
0.000002 -0.000005 0
0.000002 -0.000004 0
0.000001 -0.000003 0
0.000001 -0.000002 0
0.000001 -0.000001 0
0.000001 -0.000001 0
0.000000 0.000000 0
-0.000000 -0.000005 0
-0.000001 -0.000006 0
-0.000002 -0.000006 0
-0.000004 -0.000005 0
-0.000005 -0.000003 0
-0.000006 0.000001 0
-0.000006 0.000008 0
-0.000004 0.000015 0
0.000001 0.000018 0
0.000005 0.000015 0
0.000007 0.000009 0
0.000007 0.000002 0
0.000006 -0.000002 0
0.000005 -0.000004 0
0.000004 -0.000004 0
0.000003 -0.000003 0
0.000002 -0.000002 0
0.000002 -0.000002 0
0.000002 -0.000001 0
0.000002 -0.000001 0
0.000000 0.000000 0
-0.000001 -0.000005 0
-0.000002 -0.000005 0
-0.000003 -0.000005 0
-0.000004 -0.000004 0
-0.000006 -0.000002 0
-0.000007 0.000002 0
-0.000006 0.000007 0
-0.000004 0.000012 0
0.000001 0.000014 0
0.000005 0.000012 0
0.000007 0.000007 0
0.000008 0.000003 0
0.000007 -0.000001 0
0.000006 -0.000002 0
0.000005 -0.000003 0
0.000004 -0.000002 0
0.000003 -0.000002 0
0.000003 -0.000001 0
0.000003 -0.000001 0
0.000003 -0.000001 0
0.000000 -0.000000 0
-0.000001 -0.000004 0
-0.000002 -0.000004 0
-0.000003 -0.000003 0
-0.000004 -0.000002 0
-0.000005 -0.000001 0
-0.000006 0.000002 0
-0.000005 0.000005 0
-0.000003 0.000008 0
0.000001 0.000010 0
0.000004 0.000008 0
0.000007 0.000006 0
0.000007 0.000003 0
0.000007 0.000000 0
0.000006 -0.000001 0
0.000005 -0.000002 0
0.000004 -0.000002 0
0.000004 -0.000001 0
0.000003 -0.000001 0
0.000003 -0.000001 0
0.000003 -0.000000 0
0.000000 -0.000000 0
-0.000001 -0.000003 0
-0.000002 -0.000003 0
-0.000003 -0.000002 0
-0.000004 -0.000001 0
-0.000004 -0.000000 0
-0.000005 0.000002 0
-0.000004 0.000004 0
-0.000002 0.000006 0
0.000001 0.000006 0
0.000003 0.000006 0
0.000005 0.000004 0
0.000006 0.000002 0
0.000006 0.000001 0
0.000006 -0.000000 0
0.000005 -0.000001 0
0.000004 -0.000001 0
0.000004 -0.000001 0
0.000004 -0.000001 0
0.000003 -0.000000 0
0.000003 -0.000000 0
0.000000 -0.000000 0
-0.000001 -0.000002 0
-0.000001 -0.000002 0
-0.000002 -0.000001 0
-0.000003 -0.000001 0
-0.000003 -0.000000 0
-0.000003 0.000001 0
-0.000003 0.000003 0
-0.000001 0.000004 0
0.000001 0.000004 0
0.000003 0.000004 0
0.000004 0.000003 0
0.000005 0.000002 0
0.000005 0.000001 0
0.000005 -0.000000 0
0.000005 -0.000000 0
0.000005 -0.000001 0
0.000004 -0.000001 0
0.000004 -0.000001 0
0.000004 -0.000000 0
0.000004 -0.000000 0
0.000000 0.000000 0
-0.000001 -0.000001 0
-0.000001 -0.000001 0
-0.000002 -0.000001 0
-0.000002 -0.000001 0
-0.000003 0.000000 0
-0.000003 0.000001 0
-0.000002 0.000002 0
-0.000001 0.000002 0
0.000001 0.000003 0
0.000002 0.000002 0
0.000004 0.000002 0
0.000004 0.000001 0
0.000005 0.000001 0
0.000005 0.000000 0
0.000005 -0.000000 0
0.000004 -0.000000 0
0.000004 -0.000000 0
0.000004 -0.000000 0
0.000004 -0.000000 0
0.000004 -0.000000 0
0.000000 0.000000 0
-0.000001 -0.000001 0
-0.000001 -0.000001 0
-0.000002 -0.000000 0
-0.000002 -0.000000 0
-0.000002 0.000000 0
-0.000002 0.000000 0
-0.000001 0.000001 0
-0.000000 0.000001 0
0.000001 0.000001 0
0.000002 0.000001 0
0.000003 0.000001 0
0.000004 0.000001 0
0.000004 0.000000 0
0.000005 0.000000 0
0.000005 -0.000000 0
0.000004 -0.000000 0
0.000004 -0.000000 0
0.000004 -0.000000 0
0.000004 -0.000000 0
0.000004 -0.000000 0
0.000000 0.000000 0
-0.000000 0.000000 0
0.000000 0.000000 0
0.000000 0.000000 0
0.000000 0.000000 0
0.000000 0.000000 0
-0.000000 0.000000 0
-0.000000 0.000000 0
-0.000000 0.000000 0
-0.000000 0.000000 0
0.000000 0.000000 0
0.000000 0.000000 0
0.000000 0.000000 0
0.000000 0.000000 0
0.000000 0.000000 0
0.000000 0.000000 0
0.000000 0.000000 0
0.000000 0.000000 0
0.000000 0.000000 0
0.000000 0.000000 0
0.000000 0.000000 0

CELL_DATA 400 
SCALARS pressure float 1 
LOOKUP_TABLE default 
0.242636
0.242649
0.242636
0.242611
0.242590
0.242586
0.242598
0.242618
0.242634
0.242641
0.242639
0.242631
0.242623
0.242618
0.242617
0.242618
0.242620
0.242621
0.242622
0.242622
0.219633
0.219615
0.219603
0.219603
0.219615
0.219630
0.219639
0.219639
0.219631
0.219622
0.219616
0.219614
0.219615
0.219619
0.219621
0.219623
0.219623
0.219623
0.219623
0.219623
0.196605
0.196603
0.196618
0.196637
0.196648
0.196644
0.196630
0.196615
0.196606
0.196606
0.196611
0.196619
0.196624
0.196626
0.196626
0.196624
0.196623
0.196622
0.196622
0.196622
0.173605
0.173624
0.173639
0.173642
0.173633
0.173618
0.173606
0.173603
0.173608
0.173617
0.173624
0.173627
0.173627
0.173625
0.173623
0.173622
0.173621
0.173622
0.173622
0.173622
0.150626
0.150632
0.150627
0.150618
0.150612
0.150610
0.150614
0.150620
0.150624
0.150626
0.150625
0.150623
0.150621
0.150621
0.150621
0.150621
0.150622
0.150622
0.150622
0.150622
0.127629
0.127617
0.127611
0.127613
0.127621
0.127627
0.127630
0.127628
0.127624
0.127619
0.127617
0.127617
0.127619
0.127621
0.127622
0.127623
0.127623
0.127623
0.127623
0.127623
0.104617
0.104612
0.104618
0.104627
0.104632
0.104631
0.104626
0.104620
0.104616
0.104615
0.104617
0.104619
0.104622
0.104623
0.104623
0.104623
0.104623
0.104622
0.104622
0.104623
0.081616
0.081621
0.081626
0.081628
0.081625
0.081621
0.081618
0.081617
0.081618
0.081619
0.081621
0.081622
0.081622
0.081622
0.081622
0.081622
0.081622
0.081622
0.081622
0.081623
0.058623
0.058624
0.058622
0.058620
0.058619
0.058620
0.058621
0.058623
0.058623
0.058622
0.058621
0.058621
0.058621
0.058621
0.058622
0.058622
0.058622
0.058622
0.058623
0.058623
0.035625
0.035620
0.035618
0.035619
0.035622
0.035625
0.035626
0.035625
0.035623
0.035621
0.035620
0.035620
0.035621
0.035622
0.035622
0.035623
0.035623
0.035623
0.035623
0.035623
0.012622
0.012620
0.012621
0.012623
0.012625
0.012625
0.012624
0.012623
0.012622
0.012621
0.012621
0.012622
0.012622
0.012623
0.012623
0.012623
0.012623
0.012623
0.012623
0.012623
-0.010378
-0.010377
-0.010377
-0.010377
-0.010377
-0.010377
-0.010377
-0.010377
-0.010377
-0.010377
-0.010377
-0.010377
-0.010377
-0.010377
-0.010377
-0.010377
-0.010377
-0.010377
-0.010377
-0.010377
-0.033376
-0.033376
-0.033377
-0.033378
-0.033378
-0.033377
-0.033376
-0.033375
-0.033375
-0.033375
-0.033376
-0.033376
-0.033377
-0.033377
-0.033377
-0.033377
-0.033377
-0.033377
-0.033377
-0.033377
-0.056376
-0.056377
-0.056378
-0.056378
-0.056377
-0.056376
-0.056375
-0.056374
-0.056375
-0.056375
-0.056376
-0.056376
-0.056376
-0.056377
-0.056377
-0.056377
-0.056377
-0.056377
-0.056377
-0.056377
-0.079376
-0.079377
-0.079377
-0.079376
-0.079376
-0.079376
-0.079375
-0.079375
-0.079375
-0.079375
-0.079375
-0.079376
-0.079376
-0.079376
-0.079377
-0.079377
-0.079377
-0.079377
-0.079377
-0.079377
-0.102376
-0.102376
-0.102376
-0.102376
-0.102376
-0.102376
-0.102376
-0.102375
-0.102375
-0.102375
-0.102375
-0.102375
-0.102376
-0.102376
-0.102376
-0.102377
-0.102377
-0.102377
-0.102377
-0.102377
-0.125376
-0.125376
-0.125376
-0.125376
-0.125376
-0.125376
-0.125376
-0.125375
-0.125375
-0.125375
-0.125375
-0.125375
-0.125376
-0.125376
-0.125376
-0.125377
-0.125377
-0.125377
-0.125377
-0.125377
-0.148376
-0.148376
-0.148376
-0.148376
-0.148376
-0.148376
-0.148376
-0.148375
-0.148375
-0.148375
-0.148375
-0.148376
-0.148376
-0.148376
-0.148376
-0.148377
-0.148377
-0.148377
-0.148377
-0.148377
-0.171376
-0.171376
-0.171376
-0.171376
-0.171376
-0.171376
-0.171376
-0.171375
-0.171375
-0.171375
-0.171375
-0.171376
-0.171376
-0.171376
-0.171376
-0.171377
-0.171377
-0.171377
-0.171377
-0.171377
-0.194376
-0.194376
-0.194376
-0.194376
-0.194376
-0.194376
-0.194376
-0.194376
-0.194375
-0.194375
-0.194375
-0.194376
-0.194376
-0.194376
-0.194376
-0.194377
-0.194377
-0.194377
-0.194377
-0.194377

SCALARS temperature float 1 
LOOKUP_TABLE default 
0.000000
0.000000
0.000000
0.000000
0.000001
0.000002
0.000003
0.000004
0.000004
0.000004
0.000004
0.000003
0.000002
0.000001
0.000001
0.000000
0.000000
0.000000
0.000000
0.000000
0.000000
0.000000
0.000000
0.000001
0.000002
0.000004
0.000006
0.000009
0.000010
0.000011
0.000009
0.000007
0.000005
0.000003
0.000001
0.000001
0.000000
0.000000
0.000000
0.000000
0.000000
0.000000
0.000001
0.000003
0.000007
0.000013
0.000020
0.000028
0.000033
0.000033
0.000029
0.000022
0.000014
0.000008
0.000004
0.000002
0.000001
0.000000
0.000000
0.000000
0.000000
0.000001
0.000004
0.000010
0.000021
0.000040
0.000064
0.000088
0.000104
0.000105
0.000091
0.000068
0.000043
0.000024
0.000012
0.000005
0.000002
0.000001
0.000000
0.000000
0.000000
0.000003
0.000010
0.000027
0.000060
0.000114
0.000186
0.000257
0.000304
0.000306
0.000263
0.000193
0.000122
0.000068
0.000033
0.000014
0.000006
0.000002
0.000001
0.000000
0.000001
0.000007
0.000025
0.000068
0.000153
0.000294
0.000483
0.000676
0.000803
0.000805
0.000684
0.000495
0.000309
0.000167
0.000080
0.000034
0.000013
0.000005
0.000002
0.000001
0.000001
0.000014
0.000054
0.000149
0.000341
0.000667
0.001113
0.001579
0.001885
0.001888
0.001587
0.001130
0.000690
0.000366
0.000171
0.000072
0.000027
0.000010
0.000003
0.000002
0.000003
0.000027
0.000102
0.000286
0.000665
0.001323
0.002251
0.003243
0.003904
0.003901
0.003242
0.002264
0.001351
0.000701
0.000321
0.000132
0.000049
0.000017
0.000006
0.000003
0.000004
0.000044
0.000167
0.000471
0.001114
0.002262
0.003929
0.005757
0.006997
0.006982
0.005731
0.003924
0.002288
0.001161
0.000522
0.000211
0.000078
0.000027
0.000009
0.000004
0.000006
0.000061
0.000232
0.000662
0.001587
0.003275
0.005793
0.008622
0.010571
0.010541
0.008562
0.005761
0.003294
0.001641
0.000726
0.000289
0.000106
0.000036
0.000013
0.000006
0.000007
0.000071
0.000274
0.000786
0.001896
0.003947
0.007051
0.010589
0.013051
0.013010
0.010508
0.007004
0.003961
0.001954
0.000858
0.000340
0.000124
0.000042
0.000015
0.000007
0.000007
0.000072
0.000274
0.000784
0.001887
0.003918
0.006986
0.010475
0.012903
0.012866
0.010405
0.006948
0.003938
0.001947
0.000857
0.000341
0.000124
0.000043
0.000015
0.000007
0.000006
0.000061
0.000233
0.000659
0.001567
0.003213
0.005652
0.008378
0.010256
0.010234
0.008340
0.005640
0.003245
0.001628
0.000726
0.000292
0.000107
0.000037
0.000013
0.000006
0.000004
0.000045
0.000168
0.000470
0.001099
0.002209
0.003806
0.005546
0.006724
0.006717
0.005539
0.003820
0.002249
0.001153
0.000525
0.000215
0.000080
0.000028
0.000010
0.000005
0.000003
0.000028
0.000105
0.000289
0.000662
0.001300
0.002190
0.003132
0.003760
0.003762
0.003143
0.002215
0.001338
0.000704
0.000328
0.000137
0.000052
0.000019
0.000007
0.000003
0.000001
0.000016
0.000057
0.000155
0.000349
0.000670
0.001105
0.001554
0.001849
0.001853
0.001568
0.001128
0.000699
0.000377
0.000180
0.000077
0.000030
0.000011
0.000004
0.000002
0.000001
0.000008
0.000028
0.000074
0.000164
0.000310
0.000502
0.000696
0.000822
0.000826
0.000707
0.000518
0.000328
0.000182
0.000089
0.000039
0.000015
0.000006
0.000002
0.000001
0.000000
0.000004
0.000013
0.000033
0.000072
0.000134
0.000213
0.000293
0.000344
0.000347
0.000299
0.000223
0.000144
0.000082
0.000041
0.000018
0.000007
0.000003
0.000001
0.000001
0.000000
0.000002
0.000006
0.000015
0.000032
0.000059
0.000093
0.000127
0.000148
0.000150
0.000131
0.000099
0.000065
0.000038
0.000019
0.000009
0.000004
0.000001
0.000001
0.000000
0.000000
0.000001
0.000003
0.000009
0.000018
0.000033
0.000052
0.000071
0.000083
0.000084
0.000073
0.000056
0.000037
0.000022
0.000011
0.000005
0.000002
0.000001
0.000000
0.000000


SCALARS Species_1 float 1 
LOOKUP_TABLE default 
0.000037
0.000128
0.000274
0.000518
0.000909
0.001494
0.002299
0.003316
0.004477
0.005656
0.006685
0.007392
0.007650
0.007417
0.006750
0.005789
0.004722
0.003735
0.002987
0.002585
0.000047
0.000162
0.000346
0.000652
0.001138
0.001862
0.002855
0.004104
0.005523
0.006960
0.008208
0.009059
0.009361
0.009067
0.008246
0.007072
0.005770
0.004570
0.003660
0.003172
0.000065
0.000226
0.000480
0.000900
0.001566
0.002552
0.003900
0.005587
0.007498
0.009423
0.011087
0.012211
0.012598
0.012184
0.011070
0.009488
0.007740
0.006131
0.004915
0.004264
0.000091
0.000315
0.000668
0.001249
0.002165
0.003516
0.005357
0.007653
0.010246
0.012847
0.015084
0.016586
0.017085
0.016505
0.014982
0.012833
0.010466
0.008293
0.006652
0.005776
0.000122
0.000422
0.000893
0.001663
0.002876
0.004658
0.007079
0.010089
0.013478
0.016868
0.019774
0.021712
0.022340
0.021562
0.019560
0.016748
0.013659
0.010827
0.008692
0.007552
0.000155
0.000534
0.001126
0.002092
0.003608
0.005831
0.008841
0.012576
0.016771
0.020958
0.024535
0.026911
0.027666
0.026685
0.024198
0.020717
0.016900
0.013403
0.010769
0.009364
0.000184
0.000633
0.001332
0.002470
0.004249
0.006853
0.010372
0.014729
0.019613
0.024477
0.028626
0.031371
0.032231
0.031076
0.028176
0.024126
0.019688
0.015626
0.012568
0.010937
0.000204
0.000702
0.001475
0.002730
0.004688
0.007547
0.011404
0.016171
0.021506
0.026813
0.031332
0.034317
0.035244
0.033976
0.030808
0.026387
0.021547
0.017117
0.013781
0.012003
0.000212
0.000729
0.001529
0.002825
0.004842
0.007783
0.011744
0.016634
0.022101
0.027533
0.032155
0.035205
0.036151
0.034853
0.031611
0.027090
0.022138
0.017605
0.014191
0.012371
0.000207
0.000708
0.001484
0.002736
0.004684
0.007518
0.011332
0.016035
0.021290
0.026508
0.030948
0.033878
0.034790
0.033550
0.030444
0.026108
0.021357
0.017004
0.013725
0.011975
0.000188
0.000645
0.001348
0.002483
0.004246
0.006808
0.010253
0.014497
0.019237
0.023945
0.027951
0.030600
0.031432
0.030325
0.027537
0.023636
0.019357
0.015433
0.012474
0.010895
0.000160
0.000550
0.001149
0.002114
0.003611
0.005785
0.008706
0.012303
0.016321
0.020313
0.023712
0.025966
0.026685
0.025762
0.023414
0.020119
0.016498
0.013173
0.010663
0.009323
0.000129
0.000440
0.000919
0.001690
0.002885
0.004618
0.006946
0.009814
0.013018
0.016202
0.018919
0.020726
0.021314
0.020594
0.018737
0.016120
0.013238
0.010588
0.008584
0.007512
0.000097
0.000331
0.000692
0.001271
0.002168
0.003469
0.005217
0.007369
0.009775
0.012170
0.014216
0.015584
0.016039
0.015513
0.014131
0.012175
0.010014
0.008023
0.006516
0.005708
0.000069
0.000235
0.000490
0.000901
0.001536
0.002457
0.003694
0.005218
0.006923
0.008623
0.010079
0.011057
0.011391
0.011030
0.010061
0.008682
0.007154
0.005742
0.004672
0.004097
0.000046
0.000157
0.000328
0.000603
0.001028
0.001644
0.002472
0.003493
0.004637
0.005778
0.006759
0.007422
0.007655
0.007422
0.006780
0.005861
0.004839
0.003892
0.003172
0.002785
0.000029
0.000100
0.000209
0.000383
0.000653
0.001045
0.001572
0.002222
0.002951
0.003681
0.004310
0.004738
0.004893
0.004751
0.004348
0.003765
0.003115
0.002511
0.002050
0.001802
0.000018
0.000061
0.000128
0.000235
0.000400
0.000640
0.000964
0.001363
0.001812
0.002262
0.002652
0.002919
0.003020
0.002937
0.002693
0.002337
0.001938
0.001565
0.001281
0.001127
0.000011
0.000038
0.000079
0.000145
0.000247
0.000396
0.000597
0.000846
0.001126
0.001407
0.001652
0.001822
0.001888
0.001840
0.001691
0.001470
0.001222
0.000989
0.000811
0.000714
0.000008
0.000027
0.000056
0.000103
0.000176
0.000283
0.000426
0.000605
0.000806
0.001010
0.001187
0.001311
0.001361
0.001329
0.001223
0.001065
0.000887
0.000719
0.000590
0.000520


SCALARS Species_2 float 1 
LOOKUP_TABLE default 
0.000033
0.000098
0.000158
0.000208
0.000242
0.000259
0.000255
0.000235
0.000202
0.000162
0.000123
0.000087
0.000058
0.000037
0.000022
0.000013
0.000007
0.000004
0.000002
0.000001
0.000055
0.000162
0.000261
0.000342
0.000399
0.000424
0.000418
0.000384
0.000329
0.000265
0.000200
0.000142
0.000095
0.000060
0.000036
0.000020
0.000011
0.000006
0.000003
0.000002
0.000106
0.000313
0.000502
0.000657
0.000763
0.000811
0.000797
0.000730
0.000625
0.000502
0.000378
0.000268
0.000180
0.000114
0.000068
0.000039
0.000021