# vtk DataFile Version 2.0
generated by CFD-lab course output (written by Tobias Neckel) 
ASCII

DATASET STRUCTURED_GRID
DIMENSIONS  21 21 1 
POINTS 441 float

0.000000 0.000000 0
0.100000 0.000000 0
0.200000 0.000000 0
0.300000 0.000000 0
0.400000 0.000000 0
0.500000 0.000000 0
0.600000 0.000000 0
0.700000 0.000000 0
0.800000 0.000000 0
0.900000 0.000000 0
1.000000 0.000000 0
1.100000 0.000000 0
1.200000 0.000000 0
1.300000 0.000000 0
1.400000 0.000000 0
1.500000 0.000000 0
1.600000 0.000000 0
1.700000 0.000000 0
1.800000 0.000000 0
1.900000 0.000000 0
2.000000 0.000000 0
0.000000 0.100000 0
0.100000 0.100000 0
0.200000 0.100000 0
0.300000 0.100000 0
0.400000 0.100000 0
0.500000 0.100000 0
0.600000 0.100000 0
0.700000 0.100000 0
0.800000 0.100000 0
0.900000 0.100000 0
1.000000 0.100000 0
1.100000 0.100000 0
1.200000 0.100000 0
1.300000 0.100000 0
1.400000 0.100000 0
1.500000 0.100000 0
1.600000 0.100000 0
1.700000 0.100000 0
1.800000 0.100000 0
1.900000 0.100000 0
2.000000 0.100000 0
0.000000 0.200000 0
0.100000 0.200000 0
0.200000 0.200000 0
0.300000 0.200000 0
0.400000 0.200000 0
0.500000 0.200000 0
0.600000 0.200000 0
0.700000 0.200000 0
0.800000 0.200000 0
0.900000 0.200000 0
1.000000 0.200000 0
1.100000 0.200000 0
1.200000 0.200000 0
1.300000 0.200000 0
1.400000 0.200000 0
1.500000 0.200000 0
1.600000 0.200000 0
1.700000 0.200000 0
1.800000 0.200000 0
1.900000 0.200000 0
2.000000 0.200000 0
0.000000 0.300000 0
0.100000 0.300000 0
0.200000 0.300000 0
0.300000 0.300000 0
0.400000 0.300000 0
0.500000 0.300000 0
0.600000 0.300000 0
0.700000 0.300000 0
0.800000 0.300000 0
0.900000 0.300000 0
1.000000 0.300000 0
1.100000 0.300000 0
1.200000 0.300000 0
1.300000 0.300000 0
1.400000 0.300000 0
1.500000 0.300000 0
1.600000 0.300000 0
1.700000 0.300000 0
1.800000 0.300000 0
1.900000 0.300000 0
2.000000 0.300000 0
0.000000 0.400000 0
0.100000 0.400000 0
0.200000 0.400000 0
0.300000 0.400000 0
0.400000 0.400000 0
0.500000 0.400000 0
0.600000 0.400000 0
0.700000 0.400000 0
0.800000 0.400000 0
0.900000 0.400000 0
1.000000 0.400000 0
1.100000 0.400000 0
1.200000 0.400000 0
1.300000 0.400000 0
1.400000 0.400000 0
1.500000 0.400000 0
1.600000 0.400000 0
1.700000 0.400000 0
1.800000 0.400000 0
1.900000 0.400000 0
2.000000 0.400000 0
0.000000 0.500000 0
0.100000 0.500000 0
0.200000 0.500000 0
0.300000 0.500000 0
0.400000 0.500000 0
0.500000 0.500000 0
0.600000 0.500000 0
0.700000 0.500000 0
0.800000 0.500000 0
0.900000 0.500000 0
1.000000 0.500000 0
1.100000 0.500000 0
1.200000 0.500000 0
1.300000 0.500000 0
1.400000 0.500000 0
1.500000 0.500000 0
1.600000 0.500000 0
1.700000 0.500000 0
1.800000 0.500000 0
1.900000 0.500000 0
2.000000 0.500000 0
0.000000 0.600000 0
0.100000 0.600000 0
0.200000 0.600000 0
0.300000 0.600000 0
0.400000 0.600000 0
0.500000 0.600000 0
0.600000 0.600000 0
0.700000 0.600000 0
0.800000 0.600000 0
0.900000 0.600000 0
1.000000 0.600000 0
1.100000 0.600000 0
1.200000 0.600000 0
1.300000 0.600000 0
1.400000 0.600000 0
1.500000 0.600000 0
1.600000 0.600000 0
1.700000 0.600000 0
1.800000 0.600000 0
1.900000 0.600000 0
2.000000 0.600000 0
0.000000 0.700000 0
0.100000 0.700000 0
0.200000 0.700000 0
0.300000 0.700000 0
0.400000 0.700000 0
0.500000 0.700000 0
0.600000 0.700000 0
0.700000 0.700000 0
0.800000 0.700000 0
0.900000 0.700000 0
1.000000 0.700000 0
1.100000 0.700000 0
1.200000 0.700000 0
1.300000 0.700000 0
1.400000 0.700000 0
1.500000 0.700000 0
1.600000 0.700000 0
1.700000 0.700000 0
1.800000 0.700000 0
1.900000 0.700000 0
2.000000 0.700000 0
0.000000 0.800000 0
0.100000 0.800000 0
0.200000 0.800000 0
0.300000 0.800000 0
0.400000 0.800000 0
0.500000 0.800000 0
0.600000 0.800000 0
0.700000 0.800000 0
0.800000 0.800000 0
0.900000 0.800000 0
1.000000 0.800000 0
1.100000 0.800000 0
1.200000 0.800000 0
1.300000 0.800000 0
1.400000 0.800000 0
1.500000 0.800000 0
1.600000 0.800000 0
1.700000 0.800000 0
1.800000 0.800000 0
1.900000 0.800000 0
2.000000 0.800000 0
0.000000 0.900000 0
0.100000 0.900000 0
0.200000 0.900000 0
0.300000 0.900000 0
0.400000 0.900000 0
0.500000 0.900000 0
0.600000 0.900000 0
0.700000 0.900000 0
0.800000 0.900000 0
0.900000 0.900000 0
1.000000 0.900000 0
1.100000 0.900000 0
1.200000 0.900000 0
1.300000 0.900000 0
1.400000 0.900000 0
1.500000 0.900000 0
1.600000 0.900000 0
1.700000 0.900000 0
1.800000 0.900000 0
1.900000 0.900000 0
2.000000 0.900000 0
0.000000 1.000000 0
0.100000 1.000000 0
0.200000 1.000000 0
0.300000 1.000000 0
0.400000 1.000000 0
0.500000 1.000000 0
0.600000 1.000000 0
0.700000 1.000000 0
0.800000 1.000000 0
0.900000 1.000000 0
1.000000 1.000000 0
1.100000 1.000000 0
1.200000 1.000000 0
1.300000 1.000000 0
1.400000 1.000000 0
1.500000 1.000000 0
1.600000 1.000000 0
1.700000 1.000000 0
1.800000 1.000000 0
1.900000 1.000000 0
2.000000 1.000000 0
0.000000 1.100000 0
0.100000 1.100000 0
0.200000 1.100000 0
0.300000 1.100000 0
0.400000 1.100000 0
0.500000 1.100000 0
0.600000 1.100000 0
0.700000 1.100000 0
0.800000 1.100000 0
0.900000 1.100000 0
1.000000 1.100000 0
1.100000 1.100000 0
1.200000 1.100000 0
1.300000 1.100000 0
1.400000 1.100000 0
1.500000 1.100000 0
1.600000 1.100000 0
1.700000 1.100000 0
1.800000 1.100000 0
1.900000 1.100000 0
2.000000 1.100000 0
0.000000 1.200000 0
0.100000 1.200000 0
0.200000 1.200000 0
0.300000 1.200000 0
0.400000 1.200000 0
0.500000 1.200000 0
0.600000 1.200000 0
0.700000 1.200000 0
0.800000 1.200000 0
0.900000 1.200000 0
1.000000 1.200000 0
1.100000 1.200000 0
1.200000 1.200000 0
1.300000 1.200000 0
1.400000 1.200000 0
1.500000 1.200000 0
1.600000 1.200000 0
1.700000 1.200000 0
1.800000 1.200000 0
1.900000 1.200000 0
2.000000 1.200000 0
0.000000 1.300000 0
0.100000 1.300000 0
0.200000 1.300000 0
0.300000 1.300000 0
0.400000 1.300000 0
0.500000 1.300000 0
0.600000 1.300000 0
0.700000 1.300000 0
0.800000 1.300000 0
0.900000 1.300000 0
1.000000 1.300000 0
1.100000 1.300000 0
1.200000 1.300000 0
1.300000 1.300000 0
1.400000 1.300000 0
1.500000 1.300000 0
1.600000 1.300000 0
1.700000 1.300000 0
1.800000 1.300000 0
1.900000 1.300000 0
2.000000 1.300000 0
0.000000 1.400000 0
0.100000 1.400000 0
0.200000 1.400000 0
0.300000 1.400000 0
0.400000 1.400000 0
0.500000 1.400000 0
0.600000 1.400000 0
0.700000 1.400000 0
0.800000 1.400000 0
0.900000 1.400000 0
1.000000 1.400000 0
1.100000 1.400000 0
1.200000 1.400000 0
1.300000 1.400000 0
1.400000 1.400000 0
1.500000 1.400000 0
1.600000 1.400000 0
1.700000 1.400000 0
1.800000 1.400000 0
1.900000 1.400000 0
2.000000 1.400000 0
0.000000 1.500000 0
0.100000 1.500000 0
0.200000 1.500000 0
0.300000 1.500000 0
0.400000 1.500000 0
0.500000 1.500000 0
0.600000 1.500000 0
0.700000 1.500000 0
0.800000 1.500000 0
0.900000 1.500000 0
1.000000 1.500000 0
1.100000 1.500000 0
1.200000 1.500000 0
1.300000 1.500000 0
1.400000 1.500000 0
1.500000 1.500000 0
1.600000 1.500000 0
1.700000 1.500000 0
1.800000 1.500000 0
1.900000 1.500000 0
2.000000 1.500000 0
0.000000 1.600000 0
0.100000 1.600000 0
0.200000 1.600000 0
0.300000 1.600000 0
0.400000 1.600000 0
0.500000 1.600000 0
0.600000 1.600000 0
0.700000 1.600000 0
0.800000 1.600000 0
0.900000 1.600000 0
1.000000 1.600000 0
1.100000 1.600000 0
1.200000 1.600000 0
1.300000 1.600000 0
1.400000 1.600000 0
1.500000 1.600000 0
1.600000 1.600000 0
1.700000 1.600000 0
1.800000 1.600000 0
1.900000 1.600000 0
2.000000 1.600000 0
0.000000 1.700000 0
0.100000 1.700000 0
0.200000 1.700000 0
0.300000 1.700000 0
0.400000 1.700000 0
0.500000 1.700000 0
0.600000 1.700000 0
0.700000 1.700000 0
0.800000 1.700000 0
0.900000 1.700000 0
1.000000 1.700000 0
1.100000 1.700000 0
1.200000 1.700000 0
1.300000 1.700000 0
1.400000 1.700000 0
1.500000 1.700000 0
1.600000 1.700000 0
1.700000 1.700000 0
1.800000 1.700000 0
1.900000 1.700000 0
2.000000 1.700000 0
0.000000 1.800000 0
0.100000 1.800000 0
0.200000 1.800000 0
0.300000 1.800000 0
0.400000 1.800000 0
0.500000 1.800000 0
0.600000 1.800000 0
0.700000 1.800000 0
0.800000 1.800000 0
0.900000 1.800000 0
1.000000 1.800000 0
1.100000 1.800000 0
1.200000 1.800000 0
1.300000 1.800000 0
1.400000 1.800000 0
1.500000 1.800000 0
1.600000 1.800000 0
1.700000 1.800000 0
1.800000 1.800000 0
1.900000 1.800000 0
2.000000 1.800000 0
0.000000 1.900000 0
0.100000 1.900000 0
0.200000 1.900000 0
0.300000 1.900000 0
0.400000 1.900000 0
0.500000 1.900000 0
0.600000 1.900000 0
0.700000 1.900000 0
0.800000 1.900000 0
0.900000 1.900000 0
1.000000 1.900000 0
1.100000 1.900000 0
1.200000 1.900000 0
1.300000 1.900000 0
1.400000 1.900000 0
1.500000 1.900000 0
1.600000 1.900000 0
1.700000 1.900000 0
1.800000 1.900000 0
1.900000 1.900000 0
2.000000 1.900000 0
0.000000 2.000000 0
0.100000 2.000000 0
0.200000 2.000000 0
0.300000 2.000000 0
0.400000 2.000000 0
0.500000 2.000000 0
0.600000 2.000000 0
0.700000 2.000000 0
0.800000 2.000000 0
0.900000 2.000000 0
1.000000 2.000000 0
1.100000 2.000000 0
1.200000 2.000000 0
1.300000 2.000000 0
1.400000 2.000000 0
1.500000 2.000000 0
1.600000 2.000000 0
1.700000 2.000000 0
1.800000 2.000000 0
1.900000 2.000000 0
2.000000 2.000000 0
POINT_DATA 441 

VECTORS velocity float
0.000000 0.000000 0
-0.000000 0.000000 0
-0.000007 0.000000 0
-0.000007 0.000000 0
-0.000002 0.000000 0
0.000003 0.000000 0
0.000006 0.000000 0
0.000005 0.000000 0
0.000002 0.000000 0
-0.000001 0.000000 0
-0.000002 0.000000 0
-0.000002 0.000000 0
-0.000001 0.000000 0
-0.000001 0.000000 0
0.000000 0.000000 0
0.000000 0.000000 0
0.000000 0.000000 0
0.000000 0.000000 0
-0.000000 0.000000 0
-0.000000 0.000000 0
-0.000000 0.000000 0
0.000000 -0.000006 0
0.000009 -0.000017 0
0.000016 -0.000020 0
0.000025 -0.000010 0
0.000032 0.000004 0
0.000035 0.000016 0
0.000031 0.000020 0
0.000019 0.000019 0
0.000002 0.000016 0
-0.000018 0.000013 0
-0.000038 0.000011 0
-0.000056 0.000010 0
-0.000070 0.000010 0
-0.000081 0.000009 0
-0.000088 0.000007 0
-0.000092 0.000004 0
-0.000094 0.000002 0
-0.000095 0.000000 0
-0.000094 -0.000000 0
-0.000094 -0.000000 0
-0.000093 -0.000000 0
0.000000 -0.000007 0
0.000008 -0.000026 0
0.000024 -0.000016 0
0.000036 -0.000004 0
0.000041 0.000005 0
0.000039 0.000011 0
0.000031 0.000015 0
0.000017 0.000021 0
0.000000 0.000027 0
-0.000019 0.000033 0
-0.000040 0.000035 0
-0.000060 0.000033 0
-0.000076 0.000028 0
-0.000088 0.000021 0
-0.000096 0.000013 0
-0.000100 0.000007 0
-0.000102 0.000002 0
-0.000101 -0.000000 0
-0.000101 -0.000001 0
-0.000100 -0.000001 0
-0.000099 -0.000001 0
0.000000 0.000003 0
0.000016 -0.000029 0
0.000031 -0.000024 0
0.000040 -0.000018 0
0.000043 -0.000010 0
0.000042 0.000003 0
0.000036 0.000020 0
0.000024 0.000038 0
0.000006 0.000054 0
-0.000016 0.000062 0
-0.000041 0.000062 0
-0.000063 0.000054 0
-0.000081 0.000042 0
-0.000094 0.000029 0
-0.000100 0.000017 0
-0.000103 0.000008 0
-0.000103 0.000002 0
-0.000101 -0.000001 0
-0.000100 -0.000002 0
-0.000098 -0.000002 0
-0.000098 -0.000001 0
0.000000 0.000004 0
0.000018 -0.000043 0
0.000032 -0.000044 0
0.000043 -0.000036 0
0.000050 -0.000017 0
0.000053 0.000008 0
0.000049 0.000037 0
0.000036 0.000063 0
0.000014 0.000081 0
-0.000015 0.000089 0
-0.000044 0.000085 0
-0.000070 0.000072 0
-0.000089 0.000054 0
-0.000100 0.000036 0
-0.000105 0.000020 0
-0.000105 0.000008 0
-0.000103 0.000001 0
-0.000100 -0.000003 0
-0.000097 -0.000004 0
-0.000096 -0.000002 0
-0.000095 -0.000001 0
0.000000 -0.000001 0
0.000016 -0.000064 0
0.000034 -0.000062 0
0.000051 -0.000045 0
0.000063 -0.000018 0
0.000068 0.000014 0
0.000064 0.000049 0
0.000048 0.000082 0
0.000020 0.000106 0
-0.000014 0.000117 0
-0.000049 0.000112 0
-0.000078 0.000094 0
-0.000097 0.000069 0
-0.000107 0.000044 0
-0.000109 0.000022 0
-0.000107 0.000007 0
-0.000102 -0.000003 0
-0.000097 -0.000007 0
-0.000093 -0.000007 0
-0.000091 -0.000004 0
-0.000091 -0.000002 0
0.000000 -0.000002 0
0.000016 -0.000083 0
0.000039 -0.000077 0
0.000059 -0.000056 0
0.000074 -0.000027 0
0.000081 0.000011 0
0.000077 0.000056 0
0.000060 0.000101 0
0.000029 0.000137 0
-0.000012 0.000154 0
-0.000053 0.000147 0
-0.000085 0.000121 0
-0.000105 0.000085 0
-0.000113 0.000050 0
-0.000112 0.000021 0
-0.000106 0.000002 0
-0.000099 -0.000009 0
-0.000092 -0.000012 0
-0.000086 -0.000010 0
-0.000083 -0.000005 0
-0.000083 -0.000002 0
0.000000 0.000001 0
0.000018 -0.000100 0
0.000041 -0.000096 0
0.000061 -0.000076 0
0.000078 -0.000043 0
0.000088 0.000004 0
0.000087 0.000063 0
0.000071 0.000126 0
0.000037 0.000177 0
-0.000009 0.000200 0
-0.000055 0.000188 0
-0.000090 0.000149 0
-0.000109 0.000098 0
-0.000114 0.000051 0
-0.000109 0.000015 0
-0.000100 -0.000007 0
-0.000090 -0.000018 0
-0.000082 -0.000019 0
-0.000075 -0.000015 0
-0.000072 -0.000007 0
-0.000072 -0.000002 0
0.000000 0.000001 0
0.000017 -0.000120 0
0.000037 -0.000119 0
0.000057 -0.000097 0
0.000074 -0.000060 0
0.000087 -0.000002 0
0.000089 0.000072 0
0.000075 0.000154 0
0.000041 0.000220 0
-0.000006 0.000249 0
-0.000053 0.000230 0
-0.000087 0.000175 0
-0.000103 0.000108 0
-0.000105 0.000049 0
-0.000097 0.000007 0
-0.000086 -0.000018 0
-0.000075 -0.000027 0
-0.000067 -0.000027 0
-0.000060 -0.000020 0
-0.000057 -0.000009 0
-0.000057 -0.000002 0
0.000000 -0.000000 0
0.000012 -0.000138 0
0.000028 -0.000138 0
0.000045 -0.000115 0
0.000060 -0.000073 0
0.000072 -0.000009 0
0.000076 0.000078 0
0.000065 0.000176 0
0.000037 0.000259 0
-0.000003 0.000294 0
-0.000043 0.000269 0
-0.000071 0.000198 0
-0.000082 0.000115 0
-0.000081 0.000044 0
-0.000073 -0.000003 0
-0.000063 -0.000028 0
-0.000053 -0.000037 0
-0.000046 -0.000034 0
-0.000041 -0.000024 0
-0.000038 -0.000010 0
-0.000038 -0.000003 0
0.000000 -0.000001 0
0.000006 -0.000150 0
0.000016 -0.000150 0
0.000025 -0.000126 0
0.000035 -0.000084 0
0.000042 -0.000017 0
0.000044 0.000079 0
0.000039 0.000190 0
0.000023 0.000286 0
0.000000 0.000328 0
-0.000023 0.000298 0
-0.000038 0.000215 0
-0.000044 0.000119 0
-0.000042 0.000040 0
-0.000036 -0.000011 0
-0.000030 -0.000037 0
-0.000025 -0.000044 0
-0.000020 -0.000040 0
-0.000017 -0.000028 0
-0.000016 -0.000011 0
-0.000015 -0.000003 0
0.000000 -0.000000 0
-0.000000 -0.000153 0
0.000000 -0.000154 0
0.000001 -0.000131 0
0.000001 -0.000089 0
0.000001 -0.000021 0
0.000001 0.000078 0
0.000001 0.000195 0
0.000002 0.000297 0
0.000004 0.000340 0
0.000005 0.000308 0
0.000006 0.000220 0
0.000007 0.000119 0
0.000007 0.000037 0
0.000007 -0.000015 0
0.000008 -0.000041 0
0.000008 -0.000047 0
0.000008 -0.000042 0
0.000009 -0.000029 0
0.000009 -0.000012 0
0.000009 -0.000003 0
0.000000 0.000000 0
-0.000007 -0.000149 0
-0.000016 -0.000150 0
-0.000024 -0.000127 0
-0.000033 -0.000086 0
-0.000040 -0.000018 0
-0.000042 0.000078 0
-0.000036 0.000189 0
-0.000018 0.000285 0
0.000007 0.000326 0
0.000032 0.000296 0
0.000050 0.000213 0
0.000057 0.000117 0
0.000056 0.000039 0
0.000051 -0.000012 0
0.000046 -0.000038 0
0.000041 -0.000045 0
0.000037 -0.000040 0
0.000035 -0.000028 0
0.000033 -0.000011 0
0.000033 -0.000003 0
0.000000 -0.000000 0
-0.000013 -0.000138 0
-0.000029 -0.000137 0
-0.000044 -0.000115 0
-0.000059 -0.000074 0
-0.000070 -0.000011 0
-0.000073 0.000075 0
-0.000061 0.000172 0
-0.000032 0.000254 0
0.000010 0.000290 0
0.000052 0.000265 0
0.000081 0.000196 0
0.000094 0.000113 0
0.000094 0.000042 0
0.000088 -0.000005 0
0.000079 -0.000030 0
0.000070 -0.000039 0
0.000063 -0.000036 0
0.000059 -0.000025 0
0.000057 -0.000010 0
0.000056 -0.000002 0
0.000000 -0.000000 0
-0.000017 -0.000121 0
-0.000037 -0.000119 0
-0.000057 -0.000096 0
-0.000074 -0.000059 0
-0.000086 -0.000003 0
-0.000087 0.000069 0
-0.000072 0.000148 0
-0.000037 0.000213 0
0.000012 0.000242 0
0.000061 0.000224 0
0.000097 0.000170 0
0.000115 0.000104 0
0.000118 0.000046 0
0.000112 0.000004 0
0.000103 -0.000020 0
0.000093 -0.000030 0
0.000085 -0.000029 0
0.000080 -0.000021 0
0.000077 -0.000009 0
0.000077 -0.000002 0
0.000000 -0.000000 0
-0.000019 -0.000101 0
-0.000041 -0.000098 0
-0.000062 -0.000077 0
-0.000079 -0.000044 0
-0.000089 0.000002 0
-0.000087 0.000060 0
-0.000070 0.000121 0
-0.000034 0.000170 0
0.000014 0.000192 0
0.000063 0.000180 0
0.000100 0.000142 0
0.000122 0.000092 0
0.000128 0.000045 0
0.000126 0.000010 0
0.000118 -0.000011 0
0.000110 -0.000021 0
0.000102 -0.000022 0
0.000096 -0.000017 0
0.000093 -0.000007 0
0.000093 -0.000002 0
0.000000 -0.000000 0
-0.000020 -0.000080 0
-0.000042 -0.000077 0
-0.000062 -0.000059 0
-0.000077 -0.000032 0
-0.000084 0.000006 0
-0.000080 0.000050 0
-0.000062 0.000095 0
-0.000028 0.000130 0
0.000016 0.000145 0
0.000060 0.000138 0
0.000096 0.000112 0
0.000119 0.000076 0
0.000130 0.000041 0
0.000131 0.000014 0
0.000127 -0.000004 0
0.000121 -0.000014 0
0.000114 -0.000016 0
0.000109 -0.000012 0
0.000106 -0.000006 0
0.000106 -0.000002 0
0.000000 -0.000000 0
-0.000020 -0.000060 0
-0.000041 -0.000056 0
-0.000060 -0.000042 0
-0.000073 -0.000021 0
-0.000078 0.000006 0
-0.000072 0.000038 0
-0.000053 0.000069 0
-0.000022 0.000093 0
0.000017 0.000104 0
0.000057 0.000099 0
0.000091 0.000082 0
0.000115 0.000058 0
0.000128 0.000034 0
0.000133 0.000013 0
0.000132 -0.000001 0
0.000128 -0.000008 0
0.000123 -0.000011 0
0.000119 -0.000009 0
0.000116 -0.000004 0
0.000116 -0.000001 0
0.000000 -0.000000 0
-0.000020 -0.000039 0
-0.000041 -0.000037 0
-0.000058 -0.000027 0
-0.000070 -0.000013 0
-0.000073 0.000005 0
-0.000066 0.000025 0
-0.000047 0.000045 0
-0.000018 0.000059 0
0.000017 0.000066 0
0.000054 0.000064 0
0.000086 0.000054 0
0.000111 0.000039 0
0.000126 0.000023 0
0.000133 0.000010 0
0.000134 0.000001 0
0.000132 -0.000005 0
0.000128 -0.000007 0
0.000125 -0.000006 0
0.000123 -0.000003 0
0.000122 -0.000001 0
0.000000 -0.000000 0
-0.000019 -0.000019 0
-0.000039 -0.000018 0
-0.000056 -0.000013 0
-0.000067 -0.000006 0
-0.000069 0.000002 0
-0.000062 0.000012 0
-0.000044 0.000021 0
-0.000017 0.000028 0
0.000016 0.000031 0
0.000049 0.000030 0
0.000079 0.000026 0
0.000103 0.000019 0
0.000118 0.000011 0
0.000126 0.000005 0
0.000128 0.000000 0
0.000127 -0.000002 0
0.000124 -0.000003 0
0.000120 -0.000003 0
0.000118 -0.000001 0
0.000118 -0.000000 0
0.000000 0.000000 0
0.000000 0.000000 0
-0.000000 0.000000 0
-0.000000 0.000000 0
-0.000000 0.000000 0
-0.000000 0.000000 0
-0.000000 0.000000 0
-0.000000 0.000000 0
-0.000000 0.000000 0
0.000000 0.000000 0
0.000000 0.000000 0
0.000000 0.000000 0
0.000000 0.000000 0
0.000000 0.000000 0
0.000000 0.000000 0
0.000000 0.000000 0
0.000000 0.000000 0
0.000000 0.000000 0
0.000000 0.000000 0
0.000000 0.000000 0
0.000000 0.000000 0

CELL_DATA 400 
SCALARS pressure float 1 
LOOKUP_TABLE default 
0.242587
0.242589
0.242618
0.242647
0.242655
0.242642
0.242620
0.242601
0.242592
0.242595
0.242604
0.242613
0.242619
0.242621
0.242621
0.242620
0.242619
0.242619
0.242619
0.242620
0.219610
0.219631
0.219634
0.219623
0.219608
0.219598
0.219598
0.219604
0.219613
0.219619
0.219622
0.219621
0.219619
0.219617
0.219616
0.219616
0.219617
0.219618
0.219619
0.219620
0.196639
0.196626
0.196604
0.196591
0.196593
0.196606
0.196620
0.196629
0.196630
0.196624
0.196618
0.196613
0.196611
0.196612
0.196614
0.196617
0.196618
0.196619
0.196620
0.196620
0.173628
0.173607
0.173597
0.173602
0.173615
0.173627
0.173631
0.173628
0.173620
0.173613
0.173610
0.173610
0.173612
0.173615
0.173617
0.173618
0.173619
0.173620
0.173620
0.173621
0.150612
0.150611
0.150616
0.150621
0.150623
0.150621
0.150617
0.150614
0.150611
0.150611
0.150613
0.150615
0.150616
0.150617
0.150618
0.150618
0.150619
0.150619
0.150620
0.150621
0.127618
0.127624
0.127623
0.127617
0.127611
0.127608
0.127609
0.127613
0.127616
0.127618
0.127618
0.127618
0.127617
0.127617
0.127617
0.127618
0.127619
0.127619
0.127620
0.127621
0.104626
0.104624
0.104616
0.104610
0.104608
0.104610
0.104615
0.104619
0.104621
0.104620
0.104618
0.104616
0.104616
0.104616
0.104617
0.104618
0.104619
0.104620
0.104620
0.104621
0.081623
0.081619
0.081615
0.081614
0.081615
0.081617
0.081619
0.081620
0.081619
0.081617
0.081616
0.081616
0.081616
0.081617
0.081618
0.081619
0.081620
0.081620
0.081621
0.081621
0.058619
0.058620
0.058621
0.058621
0.058620
0.058618
0.058617
0.058617
0.058617
0.058617
0.058618
0.058618
0.058619
0.058619
0.058620
0.058620
0.058620
0.058621
0.058621
0.058622
0.035620
0.035624
0.035624
0.035622
0.035619
0.035617
0.035616
0.035617
0.035619
0.035620
0.035621
0.035621
0.035621
0.035621
0.035621
0.035621
0.035621
0.035621
0.035622
0.035622
0.012624
0.012625
0.012624
0.012621
0.012619
0.012619
0.012620
0.012621
0.012622
0.012623
0.012623
0.012622
0.012622
0.012622
0.012622
0.012622
0.012622
0.012622
0.012622
0.012622
-0.010376
-0.010376
-0.010376
-0.010376
-0.010377
-0.010377
-0.010376
-0.010376
-0.010376
-0.010376
-0.010376
-0.010376
-0.010376
-0.010377
-0.010377
-0.010377
-0.010377
-0.010377
-0.010377
-0.010377
-0.033377
-0.033375
-0.033374
-0.033373
-0.033374
-0.033374
-0.033375
-0.033375
-0.033374
-0.033374
-0.033374
-0.033374
-0.033374
-0.033375
-0.033375
-0.033376
-0.033376
-0.033376
-0.033377
-0.033377
-0.056375
-0.056374
-0.056372
-0.056372
-0.056373
-0.056373
-0.056373
-0.056373
-0.056372
-0.056372
-0.056372
-0.056372
-0.056373
-0.056373
-0.056374
-0.056375
-0.056375
-0.056376
-0.056376
-0.056377
-0.079374
-0.079373
-0.079372
-0.079372
-0.079372
-0.079372
-0.079372
-0.079371
-0.079371
-0.079370
-0.079370
-0.079371
-0.079372
-0.079372
-0.079373
-0.079374
-0.079375
-0.079375
-0.079376
-0.079376
-0.102373
-0.102372
-0.102372
-0.102371
-0.102370
-0.102370
-0.102370
-0.102370
-0.102370
-0.102370
-0.102370
-0.102370
-0.102371
-0.102372
-0.102372
-0.102373
-0.102374
-0.102375
-0.102375
-0.102376
-0.125372
-0.125372
-0.125371
-0.125370
-0.125369
-0.125369
-0.125369
-0.125369
-0.125369
-0.125369
-0.125369
-0.125369
-0.125370
-0.125371
-0.125372
-0.125373
-0.125373
-0.125374
-0.125375
-0.125376
-0.148372
-0.148371
-0.148370
-0.148369
-0.148369
-0.148369
-0.148369
-0.148369
-0.148368
-0.148368
-0.148368
-0.148369
-0.148369
-0.148370
-0.148371
-0.148372
-0.148373
-0.148374
-0.148375
-0.148375
-0.171371
-0.171371
-0.171370
-0.171369
-0.171369
-0.171368
-0.171368
-0.171368
-0.171368
-0.171368
-0.171368
-0.171368
-0.171369
-0.171370
-0.171371
-0.171372
-0.171373
-0.171373
-0.171374
-0.171375
-0.194371
-0.194371
-0.194370
-0.194369
-0.194368
-0.194368
-0.194367
-0.194367
-0.194367
-0.194367
-0.194367
-0.194368
-0.194368
-0.194369
-0.194370
-0.194371
-0.194372
-0.194373
-0.194374
-0.194375

SCALARS temperature float 1 
LOOKUP_TABLE default 
0.000014
0.000116
0.000313
0.000592
0.000931
0.001297
0.001649
0.001945
0.002150
0.002240
0.002213
0.002083
0.001880
0.001638
0.001390
0.001162
0.000969
0.000822
0.000724
0.000675
0.000015
0.000128
0.000348
0.000661
0.001041
0.001452
0.001850
0.002184
0.002413
0.002510
0.002472
0.002318
0.002083
0.001806
0.001524
0.001267
0.001053
0.000890
0.000781
0.000728
0.000019
0.000156
0.000423
0.000806
0.001275
0.001787
0.002284
0.002702
0.002985
0.003096
0.003032
0.002821
0.002510
0.002154
0.001799
0.001481
0.001219
0.001023
0.000893
0.000830
0.000024
0.000200
0.000547
0.001048
0.001670
0.002357
0.003031
0.003600
0.003976
0.004108
0.003991
0.003670
0.003220
0.002721
0.002239
0.001816
0.001476
0.001225
0.001062
0.000982
0.000032
0.000267
0.000732
0.001413
0.002274
0.003243
0.004208
0.005027
0.005560
0.005718
0.005498
0.004980
0.004292
0.003557
0.002870
0.002287
0.001830
0.001500
0.001288
0.001186
0.000043
0.000357
0.000986
0.001924
0.003137
0.004535
0.005958
0.007181
0.007966
0.008154
0.007745
0.006890
0.005809
0.004704
0.003712
0.002899
0.002279
0.001841
0.001566
0.001434
0.000057
0.000470
0.001310
0.002590
0.004287
0.006303
0.008416
0.010269
0.011449
0.011668
0.010929
0.009518
0.007826
0.006176
0.004756
0.003633
0.002804
0.002234
0.001881
0.001713
0.000073
0.000601
0.001687
0.003379
0.005691
0.008533
0.011618
0.014397
0.016170
0.016412
0.015140
0.012880
0.010305
0.007912
0.005941
0.004441
0.003368
0.002647
0.002208
0.002002
0.000090
0.000732
0.002073
0.004206
0.007205
0.011024
0.015328
0.019329
0.021903
0.022160
0.020130
0.016722
0.013017
0.009732
0.007139
0.005234
0.003908
0.003037
0.002514
0.002270
0.000103
0.000842
0.002400
0.004918
0.008547
0.013309
0.018853
0.024158
0.027610
0.027873
0.024993
0.020341
0.015475
0.011322
0.008153
0.005891
0.004351
0.003353
0.002762
0.002487
0.000111
0.000907
0.002593
0.005345
0.009359
0.014722
0.021085
0.027283
0.031348
0.031617
0.028146
0.022641
0.017004
0.012296
0.008771
0.006293
0.004624
0.003552
0.002919
0.002626
0.000112
0.000912
0.002608
0.005370
0.009392
0.014756
0.021113
0.027304
0.031372
0.031654
0.028202
0.022718
0.017093
0.012387
0.008855
0.006367
0.004687
0.003606
0.002966
0.002670
0.000105
0.000860
0.002446
0.005000
0.008659
0.013438
0.018982
0.024287
0.027757
0.028053
0.025217
0.020605
0.015760
0.011601
0.008407
0.006111
0.004539
0.003514
0.002904
0.002620
0.000094
0.000764
0.002158
0.004358
0.007428
0.011305
0.015651
0.019690
0.022310
0.022614
0.020625
0.017242
0.013536
0.010219
0.007571
0.005605
0.004222
0.003304
0.002750
0.002490
0.000080
0.000649
0.001817
0.003618
0.006052
0.009014
0.012207
0.015080
0.016932
0.017230
0.015981
0.013713
0.011093
0.008624
0.006560
0.004966
0.003808
0.003021
0.002537
0.002307
0.000066
0.000537
0.001488
0.002923
0.004803
0.007010
0.009305
0.011311
0.012606
0.012886
0.012150
0.010690
0.008902
0.007126
0.005568
0.004313
0.003370
0.002712
0.002301
0.002103
0.000054
0.000441
0.001214
0.002355
0.003812
0.005472
0.007147
0.008582
0.009517
0.009773
0.009348
0.008403
0.007175
0.005893
0.004717
0.003733
0.002970
0.002423
0.002075
0.001906
0.000045
0.000370
0.001010
0.001942
0.003107
0.004406
0.005689
0.006775
0.007492
0.007727
0.007475
0.006831
0.005948
0.004986
0.004070
0.003278
0.002647
0.002186
0.001887
0.001741
0.000039
0.000323
0.000879
0.001678
0.002666
0.003751
0.004809
0.005701
0.006296
0.006515
0.006350
0.005868
0.005178
0.004402
0.003642
0.002970
0.002424
0.002019
0.001754
0.001623
0.000036
0.000300
0.000815
0.001552
0.002456
0.003442
0.004399
0.005204
0.005745
0.005955
0.005827
0.005414
0.004809
0.004117
0.003430
0.002815
0.002310
0.001933
0.001684
0.001562


SCALARS Species_1 float 1 
LOOKUP_TABLE default 
0.000604
0.001809
0.003006
0.004188
0.005345
0.006464
0.007531
0.008529
0.009441
0.010252
0.010951
0.011533
0.011996
0.012347
0.012598
0.012766
0.012869
0.012926
0.012954
0.012965
0.000606
0.001815
0.003016
0.004202
0.005362
0.006485
0.007555
0.008555
0.009470
0.010283
0.010984
0.011567
0.012032
0.012385
0.012638
0.012808
0.012912
0.012970
0.012998
0.013009
0.000610
0.001826
0.003034
0.004227
0.005394
0.006523
0.007598
0.008604
0.009523
0.010341
0.011046
0.011632
0.012100
0.012455
0.012710
0.012881
0.012987
0.013046
0.013075
0.013087
0.000614
0.001839
0.003056
0.004257
0.005432
0.006568
0.007651
0.008663
0.009587
0.010410
0.011120
0.011710
0.012181
0.012539
0.012796
0.012969
0.013076
0.013136
0.013166
0.013178
0.000618
0.001851
0.003076
0.004284
0.005466
0.006609
0.007697
0.008715
0.009645
0.010472
0.011185
0.011779
0.012253
0.012613
0.012873
0.013047
0.013155
0.013216
0.013247
0.013259
0.000620
0.001858
0.003087
0.004299
0.005485
0.006631
0.007723
0.008743
0.009675
0.010505
0.011220
0.011815
0.012291
0.012653
0.012913
0.013088
0.013198
0.013259
0.013290
0.013303
0.000620
0.001856
0.003083
0.004294
0.005478
0.006622
0.007711
0.008729
0.009660
0.010487
0.011201
0.011796
0.012270
0.012632
0.012892
0.013067
0.013177
0.013239
0.013270
0.013283
0.000615
0.001842
0.003059
0.004260
0.005434
0.006569
0.007649
0.008659
0.009581
0.010402
0.011110
0.011699
0.012170
0.012528
0.012787
0.012961
0.013071
0.013133
0.013164
0.013177
0.000605
0.001813
0.003011
0.004193
0.005348
0.006465
0.007527
0.008521
0.009428
0.010235
0.010932
0.011511
0.011974
0.012328
0.012583
0.012755
0.012863
0.012925
0.012956
0.012969
0.000591
0.001769
0.002937
0.004090
0.005217
0.006306
0.007342
0.008310
0.009195
0.009982
0.010661
0.011226
0.011678
0.012023
0.012272
0.012441
0.012547
0.012608
0.012639
0.012651
0.000571
0.001709
0.002838
0.003952
0.005041
0.006093
0.007094
0.008030
0.008884
0.009644
0.010300
0.010846
0.011283
0.011617
0.011858
0.012022
0.012126
0.012185
0.012215
0.012228
0.000546
0.001636
0.002717
0.003783
0.004826
0.005833
0.006791
0.007687
0.008505
0.009232
0.009860
0.010383
0.010802
0.011122
0.011354
0.011512
0.011612
0.011669
0.011699
0.011711
0.000518
0.001553
0.002579
0.003591
0.004580
0.005536
0.006446
0.007296
0.008073
0.008764
0.009360
0.009857
0.010255
0.010560
0.010781
0.010932
0.011027
0.011083
0.011111
0.011123
0.000489
0.001463
0.002431
0.003385
0.004318
0.005219
0.006076
0.006878
0.007610
0.008262
0.008824
0.009294
0.009670
0.009959
0.010168
0.010311
0.010402
0.010455
0.010483
0.010494
0.000458
0.001373
0.002281
0.003176
0.004052
0.004897
0.005703
0.006455
0.007143
0.007755
0.008284
0.008726
0.009080
0.009352
0.009550
0.009685
0.009771
0.009822
0.009848
0.009859
0.000430
0.001287
0.002138
0.002978
0.003799
0.004592
0.005347
0.006053
0.006698
0.007273
0.007770
0.008185
0.008519
0.008775
0.008962
0.009090
0.009172
0.009220
0.009245
0.009256
0.000404
0.001211
0.002011
0.002801
0.003574
0.004320
0.005031
0.005696
0.006304
0.006846
0.007315
0.007706
0.008021
0.008264
0.008440
0.008562
0.008640
0.008686
0.008710
0.008720
0.000383
0.001149
0.001909
0.002658
0.003392
0.004100
0.004776
0.005407
0.005984
0.006499
0.006945
0.007318
0.007618
0.007849
0.008018
0.008134
0.008209
0.008253
0.008276
0.008286
0.000369
0.001105
0.001836
0.002558
0.003263
0.003946
0.004595
0.005203
0.005760
0.006256
0.006685
0.007045
0.007335
0.007558
0.007721
0.007833
0.007906
0.007948
0.007971
0.007981
0.000361
0.001082
0.001799
0.002506
0.003197
0.003866
0.004503
0.005098
0.005644
0.006130
0.006551
0.006904
0.007188
0.007407
0.007568
0.007678
0.007749
0.007791
0.007814
0.007823


SCALARS Species_2 float 1 
LOOKUP_TABLE default 
0.000304
0.000898
0.001455
0.001953
0.002372
0.002702
0.002934
0.003069
0.003110
0.003067
0.002954
0.002787
0.002582
0.002358
0.002131
0.001917
0.001730
0.001579
0.001474
0.001421
0.000315
0.000930
0.001507
0.002022
0.002456
0.002797
0.003038
0.003178
0.003221
0.003177
0.003061
0.002888
0.002676
0.002444
0.002210
0.001989
0.001795
0.001640
0.001531
0.001476
0.000336
0.000993
0.001608
0.002157
0.002621
0.002985
0.003242
0.003391
0.003437
0.003390
0.003266
0.003082
0.002856
0.002610
0.002360
0.002125
0.001918
0.001752
0.001637
0.001578
0.000366
0.001083