# vtk DataFile Version 2.0
generated by CFD-lab course output (written by Tobias Neckel) 
ASCII

DATASET STRUCTURED_GRID
DIMENSIONS  21 21 1 
POINTS 441 float

0.000000 0.000000 0
0.100000 0.000000 0
0.200000 0.000000 0
0.300000 0.000000 0
0.400000 0.000000 0
0.500000 0.000000 0
0.600000 0.000000 0
0.700000 0.000000 0
0.800000 0.000000 0
0.900000 0.000000 0
1.000000 0.000000 0
1.100000 0.000000 0
1.200000 0.000000 0
1.300000 0.000000 0
1.400000 0.000000 0
1.500000 0.000000 0
1.600000 0.000000 0
1.700000 0.000000 0
1.800000 0.000000 0
1.900000 0.000000 0
2.000000 0.000000 0
0.000000 0.100000 0
0.100000 0.100000 0
0.200000 0.100000 0
0.300000 0.100000 0
0.400000 0.100000 0
0.500000 0.100000 0
0.600000 0.100000 0
0.700000 0.100000 0
0.800000 0.100000 0
0.900000 0.100000 0
1.000000 0.100000 0
1.100000 0.100000 0
1.200000 0.100000 0
1.300000 0.100000 0
1.400000 0.100000 0
1.500000 0.100000 0
1.600000 0.100000 0
1.700000 0.100000 0
1.800000 0.100000 0
1.900000 0.100000 0
2.000000 0.100000 0
0.000000 0.200000 0
0.100000 0.200000 0
0.200000 0.200000 0
0.300000 0.200000 0
0.400000 0.200000 0
0.500000 0.200000 0
0.600000 0.200000 0
0.700000 0.200000 0
0.800000 0.200000 0
0.900000 0.200000 0
1.000000 0.200000 0
1.100000 0.200000 0
1.200000 0.200000 0
1.300000 0.200000 0
1.400000 0.200000 0
1.500000 0.200000 0
1.600000 0.200000 0
1.700000 0.200000 0
1.800000 0.200000 0
1.900000 0.200000 0
2.000000 0.200000 0
0.000000 0.300000 0
0.100000 0.300000 0
0.200000 0.300000 0
0.300000 0.300000 0
0.400000 0.300000 0
0.500000 0.300000 0
0.600000 0.300000 0
0.700000 0.300000 0
0.800000 0.300000 0
0.900000 0.300000 0
1.000000 0.300000 0
1.100000 0.300000 0
1.200000 0.300000 0
1.300000 0.300000 0
1.400000 0.300000 0
1.500000 0.300000 0
1.600000 0.300000 0
1.700000 0.300000 0
1.800000 0.300000 0
1.900000 0.300000 0
2.000000 0.300000 0
0.000000 0.400000 0
0.100000 0.400000 0
0.200000 0.400000 0
0.300000 0.400000 0
0.400000 0.400000 0
0.500000 0.400000 0
0.600000 0.400000 0
0.700000 0.400000 0
0.800000 0.400000 0
0.900000 0.400000 0
1.000000 0.400000 0
1.100000 0.400000 0
1.200000 0.400000 0
1.300000 0.400000 0
1.400000 0.400000 0
1.500000 0.400000 0
1.600000 0.400000 0
1.700000 0.400000 0
1.800000 0.400000 0
1.900000 0.400000 0
2.000000 0.400000 0
0.000000 0.500000 0
0.100000 0.500000 0
0.200000 0.500000 0
0.300000 0.500000 0
0.400000 0.500000 0
0.500000 0.500000 0
0.600000 0.500000 0
0.700000 0.500000 0
0.800000 0.500000 0
0.900000 0.500000 0
1.000000 0.500000 0
1.100000 0.500000 0
1.200000 0.500000 0
1.300000 0.500000 0
1.400000 0.500000 0
1.500000 0.500000 0
1.600000 0.500000 0
1.700000 0.500000 0
1.800000 0.500000 0
1.900000 0.500000 0
2.000000 0.500000 0
0.000000 0.600000 0
0.100000 0.600000 0
0.200000 0.600000 0
0.300000 0.600000 0
0.400000 0.600000 0
0.500000 0.600000 0
0.600000 0.600000 0
0.700000 0.600000 0
0.800000 0.600000 0
0.900000 0.600000 0
1.000000 0.600000 0
1.100000 0.600000 0
1.200000 0.600000 0
1.300000 0.600000 0
1.400000 0.600000 0
1.500000 0.600000 0
1.600000 0.600000 0
1.700000 0.600000 0
1.800000 0.600000 0
1.900000 0.600000 0
2.000000 0.600000 0
0.000000 0.700000 0
0.100000 0.700000 0
0.200000 0.700000 0
0.300000 0.700000 0
0.400000 0.700000 0
0.500000 0.700000 0
0.600000 0.700000 0
0.700000 0.700000 0
0.800000 0.700000 0
0.900000 0.700000 0
1.000000 0.700000 0
1.100000 0.700000 0
1.200000 0.700000 0
1.300000 0.700000 0
1.400000 0.700000 0
1.500000 0.700000 0
1.600000 0.700000 0
1.700000 0.700000 0
1.800000 0.700000 0
1.900000 0.700000 0
2.000000 0.700000 0
0.000000 0.800000 0
0.100000 0.800000 0
0.200000 0.800000 0
0.300000 0.800000 0
0.400000 0.800000 0
0.500000 0.800000 0
0.600000 0.800000 0
0.700000 0.800000 0
0.800000 0.800000 0
0.900000 0.800000 0
1.000000 0.800000 0
1.100000 0.800000 0
1.200000 0.800000 0
1.300000 0.800000 0
1.400000 0.800000 0
1.500000 0.800000 0
1.600000 0.800000 0
1.700000 0.800000 0
1.800000 0.800000 0
1.900000 0.800000 0
2.000000 0.800000 0
0.000000 0.900000 0
0.100000 0.900000 0
0.200000 0.900000 0
0.300000 0.900000 0
0.400000 0.900000 0
0.500000 0.900000 0
0.600000 0.900000 0
0.700000 0.900000 0
0.800000 0.900000 0
0.900000 0.900000 0
1.000000 0.900000 0
1.100000 0.900000 0
1.200000 0.900000 0
1.300000 0.900000 0
1.400000 0.900000 0
1.500000 0.900000 0
1.600000 0.900000 0
1.700000 0.900000 0
1.800000 0.900000 0
1.900000 0.900000 0
2.000000 0.900000 0
0.000000 1.000000 0
0.100000 1.000000 0
0.200000 1.000000 0
0.300000 1.000000 0
0.400000 1.000000 0
0.500000 1.000000 0
0.600000 1.000000 0
0.700000 1.000000 0
0.800000 1.000000 0
0.900000 1.000000 0
1.000000 1.000000 0
1.100000 1.000000 0
1.200000 1.000000 0
1.300000 1.000000 0
1.400000 1.000000 0
1.500000 1.000000 0
1.600000 1.000000 0
1.700000 1.000000 0
1.800000 1.000000 0
1.900000 1.000000 0
2.000000 1.000000 0
0.000000 1.100000 0
0.100000 1.100000 0
0.200000 1.100000 0
0.300000 1.100000 0
0.400000 1.100000 0
0.500000 1.100000 0
0.600000 1.100000 0
0.700000 1.100000 0
0.800000 1.100000 0
0.900000 1.100000 0
1.000000 1.100000 0
1.100000 1.100000 0
1.200000 1.100000 0
1.300000 1.100000 0
1.400000 1.100000 0
1.500000 1.100000 0
1.600000 1.100000 0
1.700000 1.100000 0
1.800000 1.100000 0
1.900000 1.100000 0
2.000000 1.100000 0
0.000000 1.200000 0
0.100000 1.200000 0
0.200000 1.200000 0
0.300000 1.200000 0
0.400000 1.200000 0
0.500000 1.200000 0
0.600000 1.200000 0
0.700000 1.200000 0
0.800000 1.200000 0
0.900000 1.200000 0
1.000000 1.200000 0
1.100000 1.200000 0
1.200000 1.200000 0
1.300000 1.200000 0
1.400000 1.200000 0
1.500000 1.200000 0
1.600000 1.200000 0
1.700000 1.200000 0
1.800000 1.200000 0
1.900000 1.200000 0
2.000000 1.200000 0
0.000000 1.300000 0
0.100000 1.300000 0
0.200000 1.300000 0
0.300000 1.300000 0
0.400000 1.300000 0
0.500000 1.300000 0
0.600000 1.300000 0
0.700000 1.300000 0
0.800000 1.300000 0
0.900000 1.300000 0
1.000000 1.300000 0
1.100000 1.300000 0
1.200000 1.300000 0
1.300000 1.300000 0
1.400000 1.300000 0
1.500000 1.300000 0
1.600000 1.300000 0
1.700000 1.300000 0
1.800000 1.300000 0
1.900000 1.300000 0
2.000000 1.300000 0
0.000000 1.400000 0
0.100000 1.400000 0
0.200000 1.400000 0
0.300000 1.400000 0
0.400000 1.400000 0
0.500000 1.400000 0
0.600000 1.400000 0
0.700000 1.400000 0
0.800000 1.400000 0
0.900000 1.400000 0
1.000000 1.400000 0
1.100000 1.400000 0
1.200000 1.400000 0
1.300000 1.400000 0
1.400000 1.400000 0
1.500000 1.400000 0
1.600000 1.400000 0
1.700000 1.400000 0
1.800000 1.400000 0
1.900000 1.400000 0
2.000000 1.400000 0
0.000000 1.500000 0
0.100000 1.500000 0
0.200000 1.500000 0
0.300000 1.500000 0
0.400000 1.500000 0
0.500000 1.500000 0
0.600000 1.500000 0
0.700000 1.500000 0
0.800000 1.500000 0
0.900000 1.500000 0
1.000000 1.500000 0
1.100000 1.500000 0
1.200000 1.500000 0
1.300000 1.500000 0
1.400000 1.500000 0
1.500000 1.500000 0
1.600000 1.500000 0
1.700000 1.500000 0
1.800000 1.500000 0
1.900000 1.500000 0
2.000000 1.500000 0
0.000000 1.600000 0
0.100000 1.600000 0
0.200000 1.600000 0
0.300000 1.600000 0
0.400000 1.600000 0
0.500000 1.600000 0
0.600000 1.600000 0
0.700000 1.600000 0
0.800000 1.600000 0
0.900000 1.600000 0
1.000000 1.600000 0
1.100000 1.600000 0
1.200000 1.600000 0
1.300000 1.600000 0
1.400000 1.600000 0
1.500000 1.600000 0
1.600000 1.600000 0
1.700000 1.600000 0
1.800000 1.600000 0
1.900000 1.600000 0
2.000000 1.600000 0
0.000000 1.700000 0
0.100000 1.700000 0
0.200000 1.700000 0
0.300000 1.700000 0
0.400000 1.700000 0
0.500000 1.700000 0
0.600000 1.700000 0
0.700000 1.700000 0
0.800000 1.700000 0
0.900000 1.700000 0
1.000000 1.700000 0
1.100000 1.700000 0
1.200000 1.700000 0
1.300000 1.700000 0
1.400000 1.700000 0
1.500000 1.700000 0
1.600000 1.700000 0
1.700000 1.700000 0
1.800000 1.700000 0
1.900000 1.700000 0
2.000000 1.700000 0
0.000000 1.800000 0
0.100000 1.800000 0
0.200000 1.800000 0
0.300000 1.800000 0
0.400000 1.800000 0
0.500000 1.800000 0
0.600000 1.800000 0
0.700000 1.800000 0
0.800000 1.800000 0
0.900000 1.800000 0
1.000000 1.800000 0
1.100000 1.800000 0
1.200000 1.800000 0
1.300000 1.800000 0
1.400000 1.800000 0
1.500000 1.800000 0
1.600000 1.800000 0
1.700000 1.800000 0
1.800000 1.800000 0
1.900000 1.800000 0
2.000000 1.800000 0
0.000000 1.900000 0
0.100000 1.900000 0
0.200000 1.900000 0
0.300000 1.900000 0
0.400000 1.900000 0
0.500000 1.900000 0
0.600000 1.900000 0
0.700000 1.900000 0
0.800000 1.900000 0
0.900000 1.900000 0
1.000000 1.900000 0
1.100000 1.900000 0
1.200000 1.900000 0
1.300000 1.900000 0
1.400000 1.900000 0
1.500000 1.900000 0
1.600000 1.900000 0
1.700000 1.900000 0
1.800000 1.900000 0
1.900000 1.900000 0
2.000000 1.900000 0
0.000000 2.000000 0
0.100000 2.000000 0
0.200000 2.000000 0
0.300000 2.000000 0
0.400000 2.000000 0
0.500000 2.000000 0
0.600000 2.000000 0
0.700000 2.000000 0
0.800000 2.000000 0
0.900000 2.000000 0
1.000000 2.000000 0
1.100000 2.000000 0
1.200000 2.000000 0
1.300000 2.000000 0
1.400000 2.000000 0
1.500000 2.000000 0
1.600000 2.000000 0
1.700000 2.000000 0
1.800000 2.000000 0
1.900000 2.000000 0
2.000000 2.000000 0
POINT_DATA 441 

VECTORS velocity float
0.000000 0.000000 0
0.000008 0.000000 0
0.000012 0.000000 0
0.000006 0.000000 0
-0.000002 0.000000 0
-0.000007 0.000000 0
-0.000007 0.000000 0
-0.000004 0.000000 0
0.000000 0.000000 0
0.000003 0.000000 0
0.000004 0.000000 0
0.000003 0.000000 0
0.000001 0.000000 0
-0.000000 0.000000 0
-0.000001 0.000000 0
-0.000001 0.000000 0
-0.000001 0.000000 0
-0.000000 0.000000 0
-0.000000 0.000000 0
-0.000000 0.000000 0
-0.000000 0.000000 0
0.000000 0.000013 0
0.000029 -0.000011 0
0.000054 -0.000015 0
0.000071 -0.000022 0
0.000079 -0.000022 0
0.000080 -0.000012 0
0.000071 0.000006 0
0.000053 0.000024 0
0.000024 0.000037 0
-0.000011 0.000043 0
-0.000051 0.000041 0
-0.000089 0.000034 0
-0.000121 0.000026 0
-0.000147 0.000017 0
-0.000164 0.000011 0
-0.000174 0.000006 0
-0.000179 0.000002 0
-0.000180 0.000000 0
-0.000180 -0.000001 0
-0.000179 -0.000001 0
-0.000179 -0.000000 0
0.000000 0.000006 0
0.000025 -0.000047 0
0.000049 -0.000054 0
0.000072 -0.000043 0
0.000089 -0.000020 0
0.000094 0.000009 0
0.000085 0.000038 0
0.000061 0.000060 0
0.000025 0.000073 0
-0.000019 0.000078 0
-0.000064 0.000075 0
-0.000106 0.000066 0
-0.000140 0.000054 0
-0.000166 0.000040 0
-0.000184 0.000027 0
-0.000194 0.000015 0
-0.000199 0.000007 0
-0.000200 0.000001 0
-0.000199 -0.000001 0
-0.000198 -0.000001 0
-0.000198 -0.000001 0
0.000000 -0.000006 0
0.000020 -0.000082 0
0.000052 -0.000075 0
0.000082 -0.000049 0
0.000101 -0.000016 0
0.000106 0.000018 0
0.000094 0.000051 0
0.000066 0.000081 0
0.000026 0.000104 0
-0.000021 0.000117 0
-0.000069 0.000117 0
-0.000112 0.000107 0
-0.000148 0.000088 0
-0.000173 0.000065 0
-0.000189 0.000042 0
-0.000197 0.000023 0
-0.000200 0.000009 0
-0.000199 0.000001 0
-0.000197 -0.000003 0
-0.000195 -0.000002 0
-0.000195 -0.000001 0
0.000000 -0.000003 0
0.000026 -0.000106 0
0.000063 -0.000096 0
0.000093 -0.000068 0
0.000112 -0.000032 0
0.000117 0.000012 0
0.000106 0.000061 0
0.000078 0.000109 0
0.000035 0.000148 0
-0.000018 0.000170 0
-0.000072 0.000170 0
-0.000121 0.000152 0
-0.000158 0.000120 0
-0.000183 0.000085 0
-0.000196 0.000052 0
-0.000200 0.000026 0
-0.000199 0.000008 0
-0.000195 -0.000002 0
-0.000191 -0.000005 0
-0.000189 -0.000003 0
-0.000188 -0.000001 0
0.000000 0.000003 0
0.000033 -0.000135 0
0.000069 -0.000131 0
0.000101 -0.000100 0
0.000124 -0.000053 0
0.000134 0.000010 0
0.000126 0.000081 0
0.000097 0.000151 0
0.000048 0.000205 0
-0.000014 0.000232 0
-0.000078 0.000227 0
-0.000133 0.000196 0
-0.000172 0.000150 0
-0.000194 0.000101 0
-0.000202 0.000057 0
-0.000201 0.000024 0
-0.000195 0.000003 0
-0.000188 -0.000007 0
-0.000182 -0.000009 0
-0.000178 -0.000005 0
-0.000178 -0.000002 0
0.000000 0.000002 0
0.000034 -0.000173 0
0.000072 -0.000173 0
0.000108 -0.000133 0
0.000137 -0.000070 0
0.000153 0.000012 0
0.000148 0.000105 0
0.000117 0.000195 0
0.000061 0.000265 0
-0.000011 0.000298 0
-0.000085 0.000288 0
-0.000145 0.000243 0
-0.000184 0.000179 0
-0.000202 0.000114 0
-0.000204 0.000058 0
-0.000197 0.000019 0
-0.000187 -0.000005 0
-0.000176 -0.000015 0
-0.000167 -0.000015 0
-0.000163 -0.000007 0
-0.000163 -0.000002 0
0.000000 -0.000002 0
0.000032 -0.000214 0
0.000072 -0.000211 0
0.000112 -0.000163 0
0.000144 -0.000089 0
0.000164 0.000008 0
0.000162 0.000122 0
0.000131 0.000238 0
0.000071 0.000330 0
-0.000008 0.000373 0
-0.000088 0.000357 0
-0.000151 0.000293 0
-0.000188 0.000207 0
-0.000200 0.000122 0
-0.000196 0.000054 0
-0.000184 0.000008 0
-0.000169 -0.000018 0
-0.000156 -0.000026 0
-0.000146 -0.000022 0
-0.000141 -0.000010 0
-0.000141 -0.000002 0
0.000000 -0.000002 0
0.000030 -0.000249 0
0.000068 -0.000248 0
0.000104 -0.000198 0
0.000136 -0.000117 0
0.000157 -0.000005 0
0.000159 0.000134 0
0.000133 0.000281 0
0.000075 0.000400 0
-0.000004 0.000456 0
-0.000084 0.000431 0
-0.000144 0.000343 0
-0.000175 0.000230 0
-0.000182 0.000123 0
-0.000173 0.000043 0
-0.000157 -0.000008 0
-0.000141 -0.000033 0
-0.000127 -0.000039 0
-0.000117 -0.000030 0
-0.000111 -0.000013 0
-0.000111 -0.000002 0
0.000000 0.000000 0
0.000025 -0.000279 0
0.000053 -0.000283 0
0.000082 -0.000232 0
0.000108 -0.000145 0
0.000128 -0.000019 0
0.000133 0.000144 0
0.000114 0.000321 0
0.000067 0.000468 0
0.000000 0.000534 0
-0.000067 0.000498 0
-0.000116 0.000386 0
-0.000139 0.000245 0
-0.000140 0.000119 0
-0.000129 0.000029 0
-0.000114 -0.000025 0
-0.000099 -0.000049 0
-0.000087 -0.000051 0
-0.000079 -0.000038 0
-0.000074 -0.000015 0
-0.000074 -0.000003 0
0.000000 0.000000 0
0.000014 -0.000301 0
0.000029 -0.000309 0
0.000046 -0.000256 0
0.000062 -0.000165 0
0.000074 -0.000029 0
0.000079 0.000150 0
0.000069 0.000349 0
0.000043 0.000516 0
0.000004 0.000590 0
-0.000035 0.000546 0
-0.000063 0.000414 0
-0.000074 0.000253 0
-0.000073 0.000114 0
-0.000066 0.000017 0
-0.000056 -0.000038 0
-0.000046 -0.000060 0
-0.000039 -0.000060 0
-0.000034 -0.000043 0
-0.000031 -0.000017 0
-0.000031 -0.000003 0
0.000000 -0.000001 0
0.000001 -0.000310 0
0.000001 -0.000318 0
0.000002 -0.000264 0
0.000003 -0.000171 0
0.000004 -0.000033 0
0.000005 0.000151 0
0.000006 0.000358 0
0.000007 0.000532 0
0.000007 0.000611 0
0.000008 0.000564 0
0.000008 0.000424 0
0.000009 0.000255 0
0.000010 0.000111 0
0.000011 0.000012 0
0.000013 -0.000044 0
0.000014 -0.000065 0
0.000015 -0.000064 0
0.000016 -0.000046 0
0.000016 -0.000018 0
0.000016 -0.000003 0
0.000000 -0.000001 0
-0.000012 -0.000303 0
-0.000027 -0.000310 0
-0.000042 -0.000256 0
-0.000057 -0.000165 0
-0.000067 -0.000030 0
-0.000069 0.000148 0
-0.000057 0.000346 0
-0.000029 0.000514 0
0.000011 0.000589 0
0.000051 0.000545 0
0.000079 0.000413 0
0.000093 0.000251 0
0.000094 0.000112 0
0.000089 0.000015 0
0.000081 -0.000040 0
0.000075 -0.000063 0
0.000069 -0.000062 0
0.000066 -0.000044 0
0.000064 -0.000018 0
0.000064 -0.000003 0
0.000000 -0.000000 0
-0.000022 -0.000282 0
-0.000051 -0.000287 0
-0.000080 -0.000235 0
-0.000105 -0.000147 0
-0.000123 -0.000021 0
-0.000126 0.000141 0
-0.000104 0.000318 0
-0.000055 0.000465 0
0.000013 0.000531 0
0.000082 0.000496 0
0.000133 0.000382 0
0.000158 0.000241 0
0.000162 0.000115 0
0.000154 0.000024 0
0.000142 -0.000030 0
0.000130 -0.000053 0
0.000119 -0.000055 0
0.000112 -0.000040 0
0.000109 -0.000016 0
0.000109 -0.000002 0
0.000000 -0.000000 0
-0.000030 -0.000252 0
-0.000068 -0.000253 0
-0.000105 -0.000204 0
-0.000136 -0.000123 0
-0.000156 -0.000010 0
-0.000156 0.000130 0
-0.000127 0.000277 0
-0.000067 0.000397 0
0.000015 0.000452 0
0.000098 0.000426 0
0.000162 0.000337 0
0.000197 0.000222 0
0.000207 0.000115 0
0.000201 0.000035 0
0.000188 -0.000016 0
0.000174 -0.000040 0
0.000162 -0.000044 0
0.000154 -0.000034 0
0.000149 -0.000014 0
0.000149 -0.000002 0
0.000000 -0.000000 0
-0.000035 -0.000214 0
-0.000078 -0.000213 0
-0.000118 -0.000168 0
-0.000150 -0.000096 0
-0.000168 -0.000000 0
-0.000164 0.000113 0
-0.000131 0.000229 0
-0.000068 0.000322 0
0.000016 0.000365 0
0.000101 0.000349 0
0.000170 0.000283 0
0.000211 0.000196 0
0.000229 0.000110 0
0.000229 0.000042 0
0.000220 -0.000003 0
0.000208 -0.000027 0
0.000197 -0.000034 0
0.000188 -0.000027 0
0.000183 -0.000011 0
0.000183 -0.000002 0
0.000000 -0.000000 0
-0.000038 -0.000174 0
-0.000083 -0.000171 0
-0.000123 -0.000132 0
-0.000153 -0.000072 0
-0.000168 0.000005 0
-0.000160 0.000093 0
-0.000125 0.000181 0
-0.000063 0.000249 0
0.000016 0.000282 0
0.000097 0.000272 0
0.000166 0.000227 0
0.000212 0.000163 0
0.000236 0.000098 0
0.000243 0.000044 0
0.000240 0.000005 0
0.000232 -0.000016 0
0.000223 -0.000024 0
0.000215 -0.000020 0
0.000210 -0.000009 0
0.000210 -0.000002 0
0.000000 -0.000000 0
-0.000040 -0.000131 0
-0.000086 -0.000128 0
-0.000125 -0.000097 0
-0.000154 -0.000052 0
-0.000165 0.000006 0
-0.000154 0.000071 0
-0.000118 0.000133 0
-0.000059 0.000181 0
0.000015 0.000205 0
0.000091 0.000199 0
0.000158 0.000169 0
0.000207 0.000125 0
0.000237 0.000079 0
0.000251 0.000038 0
0.000253 0.000009 0
0.000249 -0.000009 0
0.000242 -0.000017 0
0.000236 -0.000015 0
0.000232 -0.000007 0
0.000231 -0.000001 0
0.000000 0.000000 0
-0.000042 -0.000088 0
-0.000089 -0.000085 0
-0.000129 -0.000064 0
-0.000156 -0.000034 0
-0.000165 0.000005 0
-0.000153 0.000047 0
-0.000116 0.000086 0
-0.000059 0.000117 0
0.000011 0.000132 0
0.000085 0.000129 0
0.000151 0.000111 0
0.000202 0.000083 0
0.000236 0.000054 0
0.000255 0.000027 0
0.000262 0.000007 0
0.000260 -0.000005 0
0.000255 -0.000011 0
0.000249 -0.000010 0
0.000245 -0.000004 0
0.000245 -0.000001 0
0.000000 -0.000000 0
-0.000041 -0.000042 0
-0.000088 -0.000041 0
-0.000126 -0.000030 0
-0.000152 -0.000016 0
-0.000160 0.000002 0
-0.000147 0.000021 0
-0.000113 0.000040 0
-0.000061 0.000054 0
0.000004 0.000061 0
0.000071 0.000060 0
0.000133 0.000052 0
0.000182 0.000039 0
0.000216 0.000025 0
0.000236 0.000013 0
0.000243 0.000003 0
0.000243 -0.000003 0
0.000238 -0.000005 0
0.000232 -0.000005 0
0.000228 -0.000002 0
0.000228 -0.000000 0
0.000000 0.000000 0
-0.000000 0.000000 0
0.000000 0.000000 0
-0.000000 0.000000 0
-0.000000 0.000000 0
-0.000000 0.000000 0
-0.000000 0.000000 0
-0.000000 0.000000 0
-0.000000 0.000000 0
-0.000000 0.000000 0
0.000000 0.000000 0
0.000000 0.000000 0
0.000000 0.000000 0
0.000000 0.000000 0
0.000000 0.000000 0
0.000000 0.000000 0
0.000000 0.000000 0
0.000000 0.000000 0
0.000000 0.000000 0
0.000000 0.000000 0
0.000000 0.000000 0

CELL_DATA 400 
SCALARS pressure float 1 
LOOKUP_TABLE default 
0.242661
0.242630
0.242584
0.242559
0.242567
0.242596
0.242626
0.242642
0.242642
0.242630
0.242615
0.242605
0.242601
0.242602
0.242607
0.242611
0.242613
0.242615
0.242615
0.242616
0.219608
0.219590
0.219597
0.219617
0.219633
0.219637
0.219629
0.219616
0.219605
0.219599
0.219600
0.219604
0.219609
0.219613
0.219615
0.219615
0.219615
0.219615
0.219615
0.219616
0.196585
0.196615
0.196641
0.196646
0.196631
0.196609
0.196592
0.196588
0.196593
0.196604
0.196613
0.196618
0.196619
0.196617
0.196615
0.196614
0.196614
0.196614
0.196615
0.196616
0.173610
0.173635
0.173636
0.173619
0.173600
0.173589
0.173591
0.173600
0.173611
0.173619
0.173621
0.173619
0.173616
0.173613
0.173612
0.173612
0.173613
0.173615
0.173616
0.173616
0.150623
0.150620
0.150611
0.150605
0.150604
0.150608
0.150613
0.150617
0.150618
0.150616
0.150614
0.150612
0.150611
0.150612
0.150613
0.150614
0.150615
0.150616
0.150617
0.150617
0.127611
0.127606
0.127611
0.127619
0.127624
0.127623
0.127618
0.127613
0.127608
0.127607
0.127609
0.127611
0.127613
0.127615
0.127616
0.127616
0.127616
0.127617
0.127617
0.127618
0.104604
0.104613
0.104624
0.104629
0.104626
0.104618
0.104610
0.104605
0.104605
0.104608
0.104612
0.104615
0.104617
0.104617
0.104617
0.104617
0.104617
0.104617
0.104618
0.104618
0.081613
0.081620
0.081623
0.081622
0.081617
0.081612
0.081610
0.081610
0.081612
0.081614
0.081616
0.081617
0.081617
0.081617
0.081617
0.081617
0.081618
0.081618
0.081619
0.081619
0.058620
0.058618
0.058617
0.058617
0.058618
0.058618
0.058618
0.058618
0.058617
0.058616
0.058616
0.058616
0.058617
0.058617
0.058618
0.058619
0.058619
0.058619
0.058620
0.058620
0.035619
0.035615
0.035617
0.035621
0.035624
0.035624
0.035622
0.035619
0.035617
0.035616
0.035616
0.035617
0.035619
0.035620
0.035620
0.035620
0.035620
0.035621
0.035621
0.035621
0.012619
0.012618
0.012622
0.012625
0.012626
0.012625
0.012622
0.012620
0.012619
0.012619
0.012620
0.012621
0.012621
0.012622
0.012622
0.012622
0.012622
0.012622
0.012622
0.012622
-0.010377
-0.010377
-0.010376
-0.010376
-0.010376
-0.010376
-0.010376
-0.010376
-0.010377
-0.010376
-0.010376
-0.010376
-0.010376
-0.010377
-0.010377
-0.010377
-0.010377
-0.010377
-0.010377
-0.010377
-0.033374
-0.033376
-0.033377
-0.033376
-0.033375
-0.033373
-0.033372
-0.033372
-0.033372
-0.033373
-0.033374
-0.033374
-0.033375
-0.033375
-0.033375
-0.033375
-0.033376
-0.033376
-0.033376
-0.033376
-0.056373
-0.056375
-0.056376
-0.056374
-0.056372
-0.056370
-0.056369
-0.056370
-0.056370
-0.056371
-0.056372
-0.056372
-0.056373
-0.056373
-0.056373
-0.056374
-0.056374
-0.056375
-0.056375
-0.056376
-0.079372
-0.079373
-0.079373
-0.079372
-0.079370
-0.079369
-0.079369
-0.079369
-0.079369
-0.079369
-0.079370
-0.079370
-0.079370
-0.079371
-0.079372
-0.079372
-0.079373
-0.079374
-0.079374
-0.079375
-0.102370
-0.102371
-0.102371
-0.102371
-0.102370
-0.102369
-0.102368
-0.102367
-0.102367
-0.102367
-0.102368
-0.102368
-0.102369
-0.102370
-0.102370
-0.102371
-0.102372
-0.102373
-0.102373
-0.102374
-0.125369
-0.125370
-0.125370
-0.125370
-0.125369
-0.125368
-0.125367
-0.125366
-0.125365
-0.125366
-0.125366
-0.125367
-0.125368
-0.125368
-0.125369
-0.125370
-0.125371
-0.125372
-0.125372
-0.125373
-0.148368
-0.148369
-0.148370
-0.148369
-0.148368
-0.148367
-0.148366
-0.148365
-0.148365
-0.148365
-0.148365
-0.148366
-0.148366
-0.148367
-0.148368
-0.148369
-0.148370
-0.148371
-0.148371
-0.148372
-0.171368
-0.171368
-0.171368
-0.171368
-0.171367
-0.171366
-0.171365
-0.171364
-0.171364
-0.171364
-0.171364
-0.171364
-0.171365
-0.171366
-0.171367
-0.171368
-0.171369
-0.171370
-0.171371
-0.171372
-0.194368
-0.194368
-0.194368
-0.194368
-0.194367
-0.194366
-0.194364
-0.194363
-0.194363
-0.194362
-0.194363
-0.194363
-0.194364
-0.194365
-0.194366
-0.194367
-0.194368
-0.194369
-0.194370
-0.194371

SCALARS temperature float 1 
LOOKUP_TABLE default 
0.000030
0.000233
0.000625
0.001176
0.001840
0.002559
0.003265
0.003891
0.004379
0.004688
0.004807
0.004752
0.004561
0.004278
0.003954
0.003630
0.003339
0.003106
0.002943
0.002861
0.000032
0.000249
0.000668
0.001257
0.001969
0.002742
0.003502
0.004173
0.004692
0.005012
0.005124
0.005046
0.004822
0.004504
0.004145
0.003791
0.003476
0.003225
0.003052
0.002964
0.000037
0.000282
0.000757
0.001429
0.002243
0.003131
0.004006
0.004774
0.005358
0.005701
0.005793
0.005662
0.005363
0.004964
0.004529
0.004110
0.003744
0.003456
0.003259
0.003160
0.000044
0.000336
0.000902
0.001709
0.002695
0.003779
0.004850
0.005788
0.006482
0.006859
0.006906
0.006670
0.006234
0.005691
0.005124
0.004595
0.004145
0.003797
0.003563
0.003446
0.000054
0.000413
0.001113
0.002121
0.003369
0.004759
0.006144
0.007354
0.008224
0.008643
0.008598
0.008173
0.007502
0.006723
0.005948
0.005252
0.004678
0.004244
0.003955
0.003813
0.000068
0.000515
0.001398
0.002686
0.004311
0.006153
0.008020
0.009654
0.010796
0.011262
0.011043
0.010293
0.009238
0.008091
0.007007
0.006074
0.005330
0.004780
0.004422
0.004247
0.000086
0.000643
0.001755
0.003408
0.005544
0.008025
0.010598
0.012875
0.014427
0.014943
0.014414
0.013130
0.011480
0.009795
0.008281
0.007034
0.006070
0.005379
0.004937
0.004723
0.000105
0.000787
0.002164
0.004254
0.007030
0.010353
0.013903
0.017105
0.019255
0.019813
0.018782
0.016685
0.014178
0.011761
0.009697
0.008065
0.006848
0.005998
0.005463
0.005207
0.000125
0.000930
0.002579
0.005132
0.008620
0.012937
0.017703
0.022108
0.025049
0.025640
0.023895
0.020701
0.017098
0.013801
0.011114
0.009067
0.007589
0.006579
0.005954
0.005656
0.000141
0.001050
0.002930
0.005890
0.010032
0.015318
0.021328
0.027020
0.030822
0.031436
0.028889
0.024498
0.019756
0.015594
0.012322
0.009908
0.008205
0.007061
0.006361
0.006029
0.000151
0.001122
0.003143
0.006354
0.010911
0.016838
0.023705
0.030316
0.034742
0.035378
0.032257
0.027011
0.021481
0.016745
0.013100
0.010457
0.008616
0.007390
0.006643
0.006290
0.000153
0.001134
0.003174
0.006414
0.011007
0.016980
0.023906
0.030593
0.035092
0.035746
0.032601
0.027314
0.021748
0.016979
0.013305
0.010638
0.008777
0.007535
0.006778
0.006419
0.000147
0.001086
0.003026
0.006071
0.010321
0.015737
0.021910
0.027800
0.031785
0.032463
0.029862
0.025370
0.020530
0.016280
0.012928
0.010445
0.008683
0.007494
0.006763
0.006413
0.000134
0.000991
0.002740
0.005436
0.009100
0.013623
0.018627
0.023297
0.026470
0.027158
0.025369
0.022063
0.018335
0.014914
0.012106
0.009950
0.008378
0.007295
0.006618
0.006292
0.000118
0.000873
0.002393
0.004684
0.007705
0.011304
0.015151
0.018649
0.021044
0.021723
0.020679
0.018487
0.015847
0.013279
0.011061
0.009282
0.007938
0.006987
0.006383
0.006087
0.000102
0.000755
0.002053
0.003967
0.006420
0.009249
0.012175
0.014778
0.016587
0.017242
0.016728
0.015363
0.013570
0.011707
0.010003
0.008573
0.007450
0.006633
0.006103
0.005840
0.000087
0.000653
0.001765
0.003375
0.005390
0.007654
0.009936
0.011939
0.013362
0.013986
0.013795
0.012962
0.011745
0.010388
0.009077
0.007925
0.006988
0.006287
0.005824
0.005592
0.000077
0.000576
0.001549
0.002940
0.004651
0.006538
0.008409
0.010041
0.011227
0.011823
0.011810
0.011289
0.010428
0.009401
0.008357
0.007404
0.006606
0.005995
0.005584
0.005375
0.000070
0.000526
0.001409
0.002661
0.004185
0.005847
0.007480
0.008902
0.009955
0.010529
0.010606
0.010253
0.009590
0.008755
0.007874
0.007046
0.006337
0.005785
0.005409
0.005218
0.000066
0.000500
0.001339
0.002524
0.003960
0.005518
0.007043
0.008371
0.009364
0.009928
0.010040
0.009759
0.009183
0.008435
0.007629
0.006861
0.006195
0.005673
0.005316
0.005134


SCALARS Species_1 float 1 
LOOKUP_TABLE default 
0.000537
0.001605
0.002659
0.003689
0.004686
0.005643
0.006551
0.007404
0.008195
0.008919
0.009573
0.010154
0.010663
0.011100
0.011466
0.011765
0.011999
0.012172
0.012285
0.012341
0.000535
0.001601
0.002653
0.003680
0.004676
0.005631
0.006537
0.007388
0.008177
0.008900
0.009552
0.010133
0.010641
0.011077
0.011443
0.011741
0.011975
0.012147
0.012261
0.012317
0.000533
0.001595
0.002642
0.003666
0.004657
0.005608
0.006511
0.007359
0.008145
0.008865
0.009516
0.010094
0.010601
0.011035
0.011400
0.011697
0.011930
0.012102
0.012215
0.012271
0.000530
0.001586
0.002627
0.003644
0.004630
0.005575
0.006473
0.007316
0.008098
0.008814
0.009461
0.010037
0.010540
0.010972
0.011335
0.011630
0.011862
0.012033
0.012146
0.012201
0.000526
0.001573
0.002606
0.003615
0.004593
0.005531
0.006422
0.007258
0.008034
0.008745
0.009387
0.009957
0.010457
0.010886
0.011245
0.011539
0.011769
0.011939
0.012050
0.012106
0.000521
0.001557
0.002579
0.003578
0.004545
0.005473
0.006355
0.007183
0.007951
0.008654
0.009290
0.009855
0.010349
0.010773
0.011130
0.011420
0.011648
0.011816
0.011927
0.011981
0.000514
0.001536
0.002545
0.003531
0.004486
0.005402
0.006272
0.007089
0.007847
0.008542
0.009169
0.009727
0.010215
0.010633
0.010985
0.011272
0.011497
0.011663
0.011772
0.011826
0.000506
0.001512
0.002505
0.003475
0.004415
0.005317
0.006173
0.006977
0.007723
0.008407
0.009024
0.009573
0.010053
0.010465
0.010811
0.011093
0.011315
0.011478
0.011586
0.011639
0.000496
0.001484
0.002458
0.003410
0.004333
0.005218
0.006058
0.006847
0.007579
0.008249
0.008855
0.009393
0.009863
0.010268
0.010607
0.010885
0.011102
0.011263
0.011369
0.011421
0.000486
0.001452
0.002406
0.003337
0.004240
0.005106
0.005928
0.006699
0.007415
0.008071
0.008663
0.009189
0.009649
0.010045
0.010377
0.010649
0.010862
0.011019
0.011123
0.011175
0.000474
0.001418
0.002348
0.003258
0.004138
0.004983
0.005785
0.006538
0.007236
0.007875
0.008452
0.008965
0.009414
0.009800
0.010125
0.010390
0.010598
0.010752
0.010854
0.010904
0.000462
0.001381
0.002287
0.003173
0.004030
0.004853
0.005633
0.006365
0.007045
0.007666
0.008228
0.008727
0.009164
0.009540
0.009856
0.010115
0.010318
0.010468
0.010567
0.010616
0.000449
0.001342
0.002224
0.003085
0.003919
0.004718
0.005476
0.006188
0.006847
0.007451
0.007997
0.008482
0.008907
0.009273
0.009580
0.009832
0.010030
0.010176
0.010272
0.010320
0.000436
0.001304
0.002161
0.002997
0.003807
0.004584
0.005320
0.006011
0.006651
0.007237
0.007767
0.008238
0.008651
0.009007
0.009306
0.009551
0.009743
0.009886
0.009979
0.010026
0.000424
0.001268
0.002100
0.002913
0.003700
0.004455
0.005170
0.005841
0.006463
0.007033
0.007547
0.008006
0.008407
0.008753
0.009044
0.009282
0.009470
0.009608
0.009700
0.009745
0.000413
0.001235
0.002045
0.002836
0.003603
0.004337
0.005033
0.005686
0.006291
0.006846
0.007347
0.007793
0.008185
0.008521
0.008805
0.009038
0.009220
0.009355
0.009444
0.009489
0.000403
0.001206
0.001997
0.002770
0.003518
0.004235
0.004914
0.005552
0.006143
0.006685
0.007174
0.007610
0.007993
0.008322
0.008600
0.008827
0.009006
0.009138
0.009225
0.009268
0.000395
0.001183
0.001959
0.002717
0.003451
0.004154
0.004820
0.005446
0.006026
0.006557
0.007037
0.007465
0.007841
0.008164
0.008437
0.008660
0.008835
0.008965
0.009051
0.009093
0.000390
0.001167
0.001932
0.002680
0.003404
0.004098
0.004755
0.005372
0.005944
0.006468
0.006942
0.007365
0.007735
0.008055
0.008324
0.008544
0.008717
0.008846
0.008930
0.008972
0.000387
0.001158
0.001919
0.002662
0.003380
0.004069
0.004722
0.005334
0.005902
0.006423
0.006894
0.007313
0.007682
0.007999
0.008266
0.008485
0.008657
0.008784
0.008868
0.008910


SCALARS Species_2 float 1 
LOOKUP_TABLE default 
0.000252
0.000747
0.001222
0.001662
0.002058
0.002400
0.002683
0.002904
0.003064
0.003165
0.003212
0.003214
0.003179
0.003117
0.003040
0.002957
0.002879
0.002812
0.002764
0.002739
0.000255
0.000758
0.001238
0.001685
0.002086
0.002433
0.002720
0.002945
0.003107
0.003209
0.003258
0.003260
0.003225
0.003163
0.003085
0.003002
0.002922
0.002855
0.002806
0.002781
0.000262
0.000778
0.001272
0.001731
0.002142
0.002499
0.002794
0.003025
0.003191
0.003297
0.003347
0.003350
0.003314
0.003251
0.003172
0.003086
0.003005
0.002936
0.002886
0.002860
0.000272
0.000808
0.001321