# vtk DataFile Version 2.0
generated by CFD-lab course output (written by Tobias Neckel) 
ASCII

DATASET STRUCTURED_GRID
DIMENSIONS  21 21 1 
POINTS 441 float

0.000000 0.000000 0
0.100000 0.000000 0
0.200000 0.000000 0
0.300000 0.000000 0
0.400000 0.000000 0
0.500000 0.000000 0
0.600000 0.000000 0
0.700000 0.000000 0
0.800000 0.000000 0
0.900000 0.000000 0
1.000000 0.000000 0
1.100000 0.000000 0
1.200000 0.000000 0
1.300000 0.000000 0
1.400000 0.000000 0
1.500000 0.000000 0
1.600000 0.000000 0
1.700000 0.000000 0
1.800000 0.000000 0
1.900000 0.000000 0
2.000000 0.000000 0
0.000000 0.100000 0
0.100000 0.100000 0
0.200000 0.100000 0
0.300000 0.100000 0
0.400000 0.100000 0
0.500000 0.100000 0
0.600000 0.100000 0
0.700000 0.100000 0
0.800000 0.100000 0
0.900000 0.100000 0
1.000000 0.100000 0
1.100000 0.100000 0
1.200000 0.100000 0
1.300000 0.100000 0
1.400000 0.100000 0
1.500000 0.100000 0
1.600000 0.100000 0
1.700000 0.100000 0
1.800000 0.100000 0
1.900000 0.100000 0
2.000000 0.100000 0
0.000000 0.200000 0
0.100000 0.200000 0
0.200000 0.200000 0
0.300000 0.200000 0
0.400000 0.200000 0
0.500000 0.200000 0
0.600000 0.200000 0
0.700000 0.200000 0
0.800000 0.200000 0
0.900000 0.200000 0
1.000000 0.200000 0
1.100000 0.200000 0
1.200000 0.200000 0
1.300000 0.200000 0
1.400000 0.200000 0
1.500000 0.200000 0
1.600000 0.200000 0
1.700000 0.200000 0
1.800000 0.200000 0
1.900000 0.200000 0
2.000000 0.200000 0
0.000000 0.300000 0
0.100000 0.300000 0
0.200000 0.300000 0
0.300000 0.300000 0
0.400000 0.300000 0
0.500000 0.300000 0
0.600000 0.300000 0
0.700000 0.300000 0
0.800000 0.300000 0
0.900000 0.300000 0
1.000000 0.300000 0
1.100000 0.300000 0
1.200000 0.300000 0
1.300000 0.300000 0
1.400000 0.300000 0
1.500000 0.300000 0
1.600000 0.300000 0
1.700000 0.300000 0
1.800000 0.300000 0
1.900000 0.300000 0
2.000000 0.300000 0
0.000000 0.400000 0
0.100000 0.400000 0
0.200000 0.400000 0
0.300000 0.400000 0
0.400000 0.400000 0
0.500000 0.400000 0
0.600000 0.400000 0
0.700000 0.400000 0
0.800000 0.400000 0
0.900000 0.400000 0
1.000000 0.400000 0
1.100000 0.400000 0
1.200000 0.400000 0
1.300000 0.400000 0
1.400000 0.400000 0
1.500000 0.400000 0
1.600000 0.400000 0
1.700000 0.400000 0
1.800000 0.400000 0
1.900000 0.400000 0
2.000000 0.400000 0
0.000000 0.500000 0
0.100000 0.500000 0
0.200000 0.500000 0
0.300000 0.500000 0
0.400000 0.500000 0
0.500000 0.500000 0
0.600000 0.500000 0
0.700000 0.500000 0
0.800000 0.500000 0
0.900000 0.500000 0
1.000000 0.500000 0
1.100000 0.500000 0
1.200000 0.500000 0
1.300000 0.500000 0
1.400000 0.500000 0
1.500000 0.500000 0
1.600000 0.500000 0
1.700000 0.500000 0
1.800000 0.500000 0
1.900000 0.500000 0
2.000000 0.500000 0
0.000000 0.600000 0
0.100000 0.600000 0
0.200000 0.600000 0
0.300000 0.600000 0
0.400000 0.600000 0
0.500000 0.600000 0
0.600000 0.600000 0
0.700000 0.600000 0
0.800000 0.600000 0
0.900000 0.600000 0
1.000000 0.600000 0
1.100000 0.600000 0
1.200000 0.600000 0
1.300000 0.600000 0
1.400000 0.600000 0
1.500000 0.600000 0
1.600000 0.600000 0
1.700000 0.600000 0
1.800000 0.600000 0
1.900000 0.600000 0
2.000000 0.600000 0
0.000000 0.700000 0
0.100000 0.700000 0
0.200000 0.700000 0
0.300000 0.700000 0
0.400000 0.700000 0
0.500000 0.700000 0
0.600000 0.700000 0
0.700000 0.700000 0
0.800000 0.700000 0
0.900000 0.700000 0
1.000000 0.700000 0
1.100000 0.700000 0
1.200000 0.700000 0
1.300000 0.700000 0
1.400000 0.700000 0
1.500000 0.700000 0
1.600000 0.700000 0
1.700000 0.700000 0
1.800000 0.700000 0
1.900000 0.700000 0
2.000000 0.700000 0
0.000000 0.800000 0
0.100000 0.800000 0
0.200000 0.800000 0
0.300000 0.800000 0
0.400000 0.800000 0
0.500000 0.800000 0
0.600000 0.800000 0
0.700000 0.800000 0
0.800000 0.800000 0
0.900000 0.800000 0
1.000000 0.800000 0
1.100000 0.800000 0
1.200000 0.800000 0
1.300000 0.800000 0
1.400000 0.800000 0
1.500000 0.800000 0
1.600000 0.800000 0
1.700000 0.800000 0
1.800000 0.800000 0
1.900000 0.800000 0
2.000000 0.800000 0
0.000000 0.900000 0
0.100000 0.900000 0
0.200000 0.900000 0
0.300000 0.900000 0
0.400000 0.900000 0
0.500000 0.900000 0
0.600000 0.900000 0
0.700000 0.900000 0
0.800000 0.900000 0
0.900000 0.900000 0
1.000000 0.900000 0
1.100000 0.900000 0
1.200000 0.900000 0
1.300000 0.900000 0
1.400000 0.900000 0
1.500000 0.900000 0
1.600000 0.900000 0
1.700000 0.900000 0
1.800000 0.900000 0
1.900000 0.900000 0
2.000000 0.900000 0
0.000000 1.000000 0
0.100000 1.000000 0
0.200000 1.000000 0
0.300000 1.000000 0
0.400000 1.000000 0
0.500000 1.000000 0
0.600000 1.000000 0
0.700000 1.000000 0
0.800000 1.000000 0
0.900000 1.000000 0
1.000000 1.000000 0
1.100000 1.000000 0
1.200000 1.000000 0
1.300000 1.000000 0
1.400000 1.000000 0
1.500000 1.000000 0
1.600000 1.000000 0
1.700000 1.000000 0
1.800000 1.000000 0
1.900000 1.000000 0
2.000000 1.000000 0
0.000000 1.100000 0
0.100000 1.100000 0
0.200000 1.100000 0
0.300000 1.100000 0
0.400000 1.100000 0
0.500000 1.100000 0
0.600000 1.100000 0
0.700000 1.100000 0
0.800000 1.100000 0
0.900000 1.100000 0
1.000000 1.100000 0
1.100000 1.100000 0
1.200000 1.100000 0
1.300000 1.100000 0
1.400000 1.100000 0
1.500000 1.100000 0
1.600000 1.100000 0
1.700000 1.100000 0
1.800000 1.100000 0
1.900000 1.100000 0
2.000000 1.100000 0
0.000000 1.200000 0
0.100000 1.200000 0
0.200000 1.200000 0
0.300000 1.200000 0
0.400000 1.200000 0
0.500000 1.200000 0
0.600000 1.200000 0
0.700000 1.200000 0
0.800000 1.200000 0
0.900000 1.200000 0
1.000000 1.200000 0
1.100000 1.200000 0
1.200000 1.200000 0
1.300000 1.200000 0
1.400000 1.200000 0
1.500000 1.200000 0
1.600000 1.200000 0
1.700000 1.200000 0
1.800000 1.200000 0
1.900000 1.200000 0
2.000000 1.200000 0
0.000000 1.300000 0
0.100000 1.300000 0
0.200000 1.300000 0
0.300000 1.300000 0
0.400000 1.300000 0
0.500000 1.300000 0
0.600000 1.300000 0
0.700000 1.300000 0
0.800000 1.300000 0
0.900000 1.300000 0
1.000000 1.300000 0
1.100000 1.300000 0
1.200000 1.300000 0
1.300000 1.300000 0
1.400000 1.300000 0
1.500000 1.300000 0
1.600000 1.300000 0
1.700000 1.300000 0
1.800000 1.300000 0
1.900000 1.300000 0
2.000000 1.300000 0
0.000000 1.400000 0
0.100000 1.400000 0
0.200000 1.400000 0
0.300000 1.400000 0
0.400000 1.400000 0
0.500000 1.400000 0
0.600000 1.400000 0
0.700000 1.400000 0
0.800000 1.400000 0
0.900000 1.400000 0
1.000000 1.400000 0
1.100000 1.400000 0
1.200000 1.400000 0
1.300000 1.400000 0
1.400000 1.400000 0
1.500000 1.400000 0
1.600000 1.400000 0
1.700000 1.400000 0
1.800000 1.400000 0
1.900000 1.400000 0
2.000000 1.400000 0
0.000000 1.500000 0
0.100000 1.500000 0
0.200000 1.500000 0
0.300000 1.500000 0
0.400000 1.500000 0
0.500000 1.500000 0
0.600000 1.500000 0
0.700000 1.500000 0
0.800000 1.500000 0
0.900000 1.500000 0
1.000000 1.500000 0
1.100000 1.500000 0
1.200000 1.500000 0
1.300000 1.500000 0
1.400000 1.500000 0
1.500000 1.500000 0
1.600000 1.500000 0
1.700000 1.500000 0
1.800000 1.500000 0
1.900000 1.500000 0
2.000000 1.500000 0
0.000000 1.600000 0
0.100000 1.600000 0
0.200000 1.600000 0
0.300000 1.600000 0
0.400000 1.600000 0
0.500000 1.600000 0
0.600000 1.600000 0
0.700000 1.600000 0
0.800000 1.600000 0
0.900000 1.600000 0
1.000000 1.600000 0
1.100000 1.600000 0
1.200000 1.600000 0
1.300000 1.600000 0
1.400000 1.600000 0
1.500000 1.600000 0
1.600000 1.600000 0
1.700000 1.600000 0
1.800000 1.600000 0
1.900000 1.600000 0
2.000000 1.600000 0
0.000000 1.700000 0
0.100000 1.700000 0
0.200000 1.700000 0
0.300000 1.700000 0
0.400000 1.700000 0
0.500000 1.700000 0
0.600000 1.700000 0
0.700000 1.700000 0
0.800000 1.700000 0
0.900000 1.700000 0
1.000000 1.700000 0
1.100000 1.700000 0
1.200000 1.700000 0
1.300000 1.700000 0
1.400000 1.700000 0
1.500000 1.700000 0
1.600000 1.700000 0
1.700000 1.700000 0
1.800000 1.700000 0
1.900000 1.700000 0
2.000000 1.700000 0
0.000000 1.800000 0
0.100000 1.800000 0
0.200000 1.800000 0
0.300000 1.800000 0
0.400000 1.800000 0
0.500000 1.800000 0
0.600000 1.800000 0
0.700000 1.800000 0
0.800000 1.800000 0
0.900000 1.800000 0
1.000000 1.800000 0
1.100000 1.800000 0
1.200000 1.800000 0
1.300000 1.800000 0
1.400000 1.800000 0
1.500000 1.800000 0
1.600000 1.800000 0
1.700000 1.800000 0
1.800000 1.800000 0
1.900000 1.800000 0
2.000000 1.800000 0
0.000000 1.900000 0
0.100000 1.900000 0
0.200000 1.900000 0
0.300000 1.900000 0
0.400000 1.900000 0
0.500000 1.900000 0
0.600000 1.900000 0
0.700000 1.900000 0
0.800000 1.900000 0
0.900000 1.900000 0
1.000000 1.900000 0
1.100000 1.900000 0
1.200000 1.900000 0
1.300000 1.900000 0
1.400000 1.900000 0
1.500000 1.900000 0
1.600000 1.900000 0
1.700000 1.900000 0
1.800000 1.900000 0
1.900000 1.900000 0
2.000000 1.900000 0
0.000000 2.000000 0
0.100000 2.000000 0
0.200000 2.000000 0
0.300000 2.000000 0
0.400000 2.000000 0
0.500000 2.000000 0
0.600000 2.000000 0
0.700000 2.000000 0
0.800000 2.000000 0
0.900000 2.000000 0
1.000000 2.000000 0
1.100000 2.000000 0
1.200000 2.000000 0
1.300000 2.000000 0
1.400000 2.000000 0
1.500000 2.000000 0
1.600000 2.000000 0
1.700000 2.000000 0
1.800000 2.000000 0
1.900000 2.000000 0
2.000000 2.000000 0
POINT_DATA 441 

VECTORS velocity float
0.000000 0.000000 0
0.000008 0.000000 0
-0.000001 0.000000 0
-0.000011 0.000000 0
-0.000007 0.000000 0
0.000002 0.000000 0
0.000004 0.000000 0
0.000004 0.000000 0
0.000004 0.000000 0
0.000002 0.000000 0
-0.000000 0.000000 0
-0.000001 0.000000 0
-0.000001 0.000000 0
-0.000001 0.000000 0
-0.000001 0.000000 0
-0.000000 0.000000 0
0.000000 0.000000 0
0.000000 0.000000 0
0.000000 0.000000 0
0.000000 0.000000 0
-0.000000 0.000000 0
0.000000 0.000001 0
0.000005 -0.000003 0
-0.000003 -0.000014 0
-0.000008 -0.000015 0
-0.000002 -0.000001 0
0.000002 0.000011 0
0.000002 0.000013 0
0.000002 0.000010 0
0.000001 0.000005 0
0.000000 -0.000000 0
-0.000001 -0.000004 0
-0.000001 -0.000005 0
-0.000001 -0.000004 0
-0.000001 -0.000003 0
-0.000001 -0.000002 0
-0.000000 -0.000001 0
-0.000000 -0.000000 0
0.000000 -0.000000 0
-0.000000 -0.000000 0
-0.000000 -0.000000 0
-0.000000 -0.000001 0
0.000000 -0.000007 0
-0.000002 -0.000009 0
-0.000004 -0.000004 0
0.000002 0.000006 0
0.000006 0.000012 0
0.000001 0.000007 0
-0.000002 0.000000 0
-0.000002 -0.000004 0
-0.000002 -0.000006 0
-0.000002 -0.000006 0
-0.000001 -0.000004 0
-0.000000 -0.000002 0
-0.000000 -0.000001 0
0.000000 -0.000000 0
0.000000 0.000000 0
0.000000 0.000000 0
-0.000000 -0.000000 0
-0.000000 -0.000000 0
-0.000000 -0.000001 0
-0.000000 -0.000001 0
-0.000000 -0.000001 0
0.000000 0.000003 0
0.000001 0.000002 0
0.000001 0.000005 0
0.000006 0.000004 0
0.000002 -0.000003 0
-0.000004 -0.000008 0
-0.000004 -0.000008 0
-0.000002 -0.000005 0
-0.000001 -0.000002 0
-0.000000 -0.000001 0
0.000001 0.000001 0
0.000001 0.000001 0
0.000000 0.000001 0
0.000000 0.000000 0
-0.000000 -0.000000 0
-0.000000 -0.000001 0
-0.000000 -0.000001 0
-0.000000 -0.000001 0
-0.000000 -0.000001 0
-0.000000 -0.000001 0
-0.000000 -0.000001 0
0.000000 0.000006 0
-0.000001 0.000003 0
-0.000000 -0.000003 0
0.000002 -0.000007 0
-0.000002 -0.000008 0
-0.000003 -0.000005 0
-0.000000 -0.000000 0
0.000000 0.000002 0
-0.000000 0.000002 0
0.000000 0.000001 0
0.000000 0.000001 0
0.000000 -0.000000 0
-0.000000 -0.000001 0
-0.000000 -0.000001 0
-0.000000 -0.000001 0
-0.000000 -0.000001 0
-0.000000 -0.000001 0
-0.000000 -0.000001 0
-0.000000 -0.000001 0
-0.000000 -0.000001 0
-0.000000 -0.000001 0
0.000000 -0.000003 0
-0.000007 -0.000005 0
-0.000001 -0.000005 0
0.000002 -0.000002 0
-0.000001 0.000000 0
0.000001 0.000002 0
0.000001 0.000002 0
-0.000000 0.000001 0
-0.000001 -0.000000 0
-0.000000 -0.000001 0
-0.000000 -0.000001 0
-0.000000 -0.000002 0
-0.000000 -0.000002 0
-0.000000 -0.000002 0
-0.000000 -0.000001 0
-0.000000 -0.000001 0
-0.000000 -0.000001 0
-0.000000 -0.000001 0
-0.000000 -0.000001 0
-0.000000 -0.000001 0
-0.000000 -0.000001 0
0.000000 -0.000005 0
-0.000005 -0.000004 0
0.000003 0.000001 0
0.000002 0.000002 0
0.000000 0.000001 0
0.000001 -0.000001 0
-0.000000 -0.000002 0
-0.000001 -0.000002 0
-0.000001 -0.000002 0
-0.000000 -0.000001 0
-0.000000 -0.000001 0
-0.000000 -0.000001 0
-0.000000 -0.000001 0
-0.000000 -0.000001 0
-0.000000 -0.000001 0
-0.000000 -0.000001 0
-0.000000 -0.000001 0
-0.000000 -0.000001 0
-0.000000 -0.000001 0
-0.000000 -0.000001 0
-0.000000 -0.000001 0
0.000000 0.000001 0
0.000000 0.000000 0
0.000003 0.000001 0
0.000000 -0.000002 0
-0.000001 -0.000004 0
0.000000 -0.000003 0
-0.000000 -0.000003 0
-0.000000 -0.000001 0
-0.000000 -0.000001 0
-0.000000 -0.000000 0
-0.000000 -0.000000 0
-0.000000 -0.000001 0
-0.000000 -0.000001 0
-0.000000 -0.000001 0
-0.000000 -0.000001 0
-0.000000 -0.000001 0
-0.000000 -0.000001 0
-0.000000 -0.000001 0
-0.000000 -0.000001 0
-0.000000 -0.000001 0
-0.000000 -0.000001 0
0.000000 0.000002 0
0.000001 -0.000001 0
0.000000 -0.000003 0
-0.000001 -0.000004 0
0.000000 -0.000003 0
0.000001 -0.000002 0
0.000000 -0.000001 0
0.000000 -0.000000 0
0.000000 0.000000 0
-0.000000 -0.000000 0
-0.000001 -0.000000 0
-0.000000 -0.000001 0
-0.000000 -0.000001 0
-0.000000 -0.000001 0
-0.000000 -0.000001 0
-0.000000 -0.000001 0
-0.000000 -0.000001 0
-0.000000 -0.000001 0
-0.000000 -0.000001 0
-0.000000 -0.000001 0
-0.000000 -0.000001 0
0.000000 -0.000001 0
-0.000000 -0.000002 0
-0.000001 -0.000003 0
-0.000000 -0.000002 0
0.000001 -0.000001 0
0.000001 -0.000001 0
0.000001 -0.000001 0
0.000000 -0.000001 0
0.000000 -0.000000 0
-0.000000 -0.000000 0
-0.000001 -0.000000 0
-0.000001 -0.000001 0
-0.000000 -0.000001 0
-0.000000 -0.000001 0
-0.000000 -0.000001 0
-0.000000 -0.000001 0
-0.000000 -0.000001 0
-0.000000 -0.000001 0
-0.000000 -0.000001 0
-0.000000 -0.000001 0
-0.000000 -0.000001 0
0.000000 -0.000000 0
-0.000000 -0.000002 0
-0.000000 -0.000001 0
0.000000 -0.000001 0
0.000001 -0.000002 0
0.000000 -0.000002 0
0.000000 -0.000002 0
0.000000 -0.000001 0
0.000000 -0.000000 0
-0.000000 0.000000 0
-0.000000 0.000000 0
-0.000000 -0.000001 0
-0.000000 -0.000001 0
-0.000000 -0.000001 0
-0.000000 -0.000001 0
-0.000000 -0.000001 0
-0.000000 -0.000001 0
-0.000000 -0.000001 0
-0.000000 -0.000001 0
-0.000000 -0.000001 0
-0.000000 -0.000001 0
0.000000 0.000000 0
0.000000 -0.000001 0
-0.000000 -0.000001 0
-0.000000 -0.000002 0
0.000000 -0.000002 0
0.000000 -0.000002 0
0.000000 -0.000002 0
0.000000 -0.000001 0
-0.000000 0.000000 0
-0.000000 0.000000 0
-0.000000 0.000000 0
-0.000000 -0.000000 0
-0.000000 -0.000001 0
0.000000 -0.000001 0
0.000000 -0.000001 0
0.000000 -0.000001 0
0.000000 -0.000001 0
0.000000 -0.000001 0
0.000000 -0.000001 0
0.000000 -0.000001 0
0.000000 -0.000001 0
0.000000 0.000000 0
0.000000 -0.000001 0
-0.000000 -0.000002 0
-0.000000 -0.000002 0
-0.000000 -0.000002 0
0.000000 -0.000001 0
0.000000 -0.000001 0
-0.000000 -0.000001 0
-0.000000 -0.000000 0
-0.000000 0.000000 0
0.000000 0.000000 0
0.000000 -0.000000 0
0.000000 -0.000001 0
0.000000 -0.000001 0
0.000000 -0.000001 0
0.000000 -0.000001 0
0.000000 -0.000001 0
0.000000 -0.000001 0
0.000000 -0.000001 0
0.000000 -0.000001 0
0.000000 -0.000001 0
0.000000 -0.000000 0
-0.000000 -0.000002 0
-0.000000 -0.000001 0
-0.000000 -0.000001 0
0.000000 -0.000001 0
0.000000 -0.000001 0
-0.000000 -0.000001 0
-0.000000 -0.000001 0
-0.000000 -0.000000 0
0.000000 0.000000 0
0.000000 -0.000000 0
0.000000 -0.000000 0
0.000000 -0.000001 0
0.000000 -0.000001 0
0.000000 -0.000001 0
0.000000 -0.000001 0
0.000000 -0.000001 0
0.000000 -0.000001 0
0.000000 -0.000001 0
0.000000 -0.000001 0
0.000000 -0.000001 0
0.000000 -0.000000 0
0.000000 -0.000001 0
0.000000 -0.000001 0
-0.000000 -0.000001 0
-0.000000 -0.000001 0
-0.000000 -0.000001 0
-0.000000 -0.000001 0
-0.000000 -0.000001 0
-0.000000 -0.000000 0
0.000000 -0.000000 0
0.000000 -0.000000 0
0.000000 -0.000000 0
0.000000 -0.000001 0
0.000000 -0.000001 0
0.000000 -0.000001 0
0.000000 -0.000001 0
0.000000 -0.000001 0
0.000000 -0.000001 0
0.000000 -0.000001 0
0.000000 -0.000001 0
0.000000 -0.000001 0
0.000000 -0.000000 0
0.000000 -0.000001 0
0.000000 -0.000001 0
-0.000000 -0.000001 0
-0.000000 -0.000001 0
-0.000000 -0.000001 0
-0.000000 -0.000001 0
-0.000000 -0.000001 0
0.000000 -0.000000 0
0.000000 -0.000000 0
0.000000 -0.000000 0
0.000000 -0.000000 0
0.000000 -0.000000 0
0.000000 -0.000001 0
0.000000 -0.000001 0
0.000000 -0.000001 0
0.000000 -0.000001 0
0.000000 -0.000001 0
0.000000 -0.000001 0
0.000000 -0.000001 0
0.000000 -0.000001 0
0.000000 -0.000000 0
0.000000 -0.000001 0
0.000000 -0.000001 0
0.000000 -0.000001 0
-0.000000 -0.000001 0
0.000000 -0.000001 0
0.000000 -0.000001 0
0.000000 -0.000000 0
0.000000 -0.000000 0
0.000000 -0.000000 0
0.000000 -0.000000 0
0.000000 -0.000000 0
0.000000 -0.000000 0
0.000000 -0.000000 0
0.000000 -0.000000 0
0.000000 -0.000001 0
0.000000 -0.000001 0
0.000000 -0.000001 0
0.000000 -0.000001 0
0.000000 -0.000001 0
0.000000 -0.000000 0
0.000000 -0.000000 0
0.000000 -0.000001 0
0.000000 -0.000001 0
0.000000 -0.000001 0
0.000000 -0.000000 0
0.000000 -0.000000 0
0.000000 -0.000000 0
0.000000 -0.000000 0
0.000000 -0.000000 0
0.000000 -0.000000 0
0.000000 -0.000000 0
0.000000 -0.000000 0
0.000000 -0.000000 0
0.000000 -0.000000 0
0.000000 -0.000000 0
0.000000 -0.000000 0
0.000000 -0.000000 0
0.000000 -0.000000 0
0.000000 -0.000000 0
0.000000 -0.000000 0
0.000000 -0.000000 0
0.000000 -0.000000 0
0.000000 -0.000000 0
0.000000 -0.000000 0
0.000000 -0.000000 0
0.000000 -0.000000 0
0.000000 -0.000000 0
0.000000 -0.000000 0
0.000000 -0.000000 0
0.000000 -0.000000 0
0.000000 -0.000000 0
0.000000 -0.000000 0
0.000000 -0.000000 0
0.000000 -0.000000 0
0.000000 -0.000000 0
0.000000 -0.000000 0
0.000000 -0.000000 0
0.000000 -0.000000 0
0.000000 -0.000000 0
0.000000 -0.000000 0
0.000000 -0.000000 0
0.000000 -0.000000 0
0.000000 -0.000000 0
0.000000 -0.000000 0
0.000000 -0.000000 0
0.000000 -0.000000 0
0.000000 -0.000000 0
0.000000 -0.000000 0
0.000000 -0.000000 0
0.000000 -0.000000 0
0.000000 -0.000000 0
0.000000 -0.000000 0
0.000000 -0.000000 0
0.000000 -0.000000 0
0.000000 -0.000000 0
0.000000 -0.000000 0
0.000000 -0.000000 0
0.000000 -0.000000 0
0.000000 -0.000000 0
0.000000 -0.000000 0
0.000000 -0.000000 0
0.000000 -0.000000 0
0.000000 -0.000000 0
0.000000 0.000000 0
0.000000 0.000000 0
0.000000 0.000000 0
0.000000 0.000000 0
-0.000000 0.000000 0
-0.000000 0.000000 0
0.000000 0.000000 0
0.000000 0.000000 0
0.000000 0.000000 0
0.000000 0.000000 0
0.000000 0.000000 0
0.000000 0.000000 0
0.000000 0.000000 0
0.000000 0.000000 0
0.000000 0.000000 0
0.000000 0.000000 0
0.000000 0.000000 0
0.000000 0.000000 0
0.000000 0.000000 0
0.000000 0.000000 0
0.000000 0.000000 0

CELL_DATA 400 
SCALARS pressure float 1 
LOOKUP_TABLE default 
0.242612
0.242580
0.242585
0.242632
0.242659
0.242653
0.242638
0.242623
0.242609
0.242602
0.242603
0.242608
0.242614
0.242618
0.242621
0.242622
0.242621
0.242620
0.242620
0.242620
0.219609
0.219617
0.219642
0.219645
0.219617
0.219601
0.219601
0.219604
0.219609
0.219616
0.219621
0.219623
0.219623
0.219623
0.219621
0.219620
0.219619
0.219619
0.219619
0.219619
0.196635
0.196635
0.196628
0.196597
0.196582
0.196598
0.196616
0.196625
0.196629
0.196630
0.196627
0.196623
0.196620
0.196618
0.196617
0.196618
0.196618
0.196619
0.196619
0.196619
0.173625
0.173614
0.173607
0.173597
0.173610
0.173629
0.173633
0.173630
0.173628
0.173624
0.173620
0.173617
0.173616
0.173616
0.173617
0.173619
0.173620
0.173620
0.173620
0.173620
0.150600
0.150618
0.150624
0.150622
0.150629
0.150627
0.150620
0.150619
0.150619
0.150618
0.150618
0.150618
0.150619
0.150619
0.150620
0.150620
0.150620
0.150620
0.150620
0.150620
0.127610
0.127636
0.127628
0.127618
0.127616
0.127612
0.127612
0.127617
0.127621
0.127622
0.127622
0.127622
0.127621
0.127621
0.127621
0.127620
0.127620
0.127620
0.127621
0.127621
0.104630
0.104630
0.104613
0.104610
0.104613
0.104615
0.104619
0.104622
0.104624
0.104624
0.104624
0.104623
0.104622
0.104621
0.104620
0.104620
0.104621
0.104621
0.104621
0.104621
0.081627
0.081618
0.081614
0.081620
0.081622
0.081621
0.081621
0.081622
0.081622
0.081622
0.081623
0.081622
0.081621
0.081621
0.081621
0.081621
0.081621
0.081621
0.081621
0.081622
0.058621
0.058620
0.058624
0.058626
0.058623
0.058619
0.058619
0.058619
0.058620
0.058622
0.058622
0.058622
0.058622
0.058622
0.058622
0.058622
0.058622
0.058622
0.058622
0.058622
0.035623
0.035625
0.035626
0.035623
0.035620
0.035619
0.035619
0.035620
0.035621
0.035622
0.035623
0.035623
0.035623
0.035623
0.035622
0.035622
0.035622
0.035622
0.035622
0.035622
0.012625
0.012624
0.012623
0.012622
0.012622
0.012622
0.012622
0.012622
0.012622
0.012623
0.012623
0.012623
0.012623
0.012623
0.012623
0.012623
0.012623
0.012623
0.012623
0.012623
-0.010377
-0.010377
-0.010376
-0.010375
-0.010375
-0.010376
-0.010377
-0.010378
-0.010377
-0.010377
-0.010377
-0.010376
-0.010376
-0.010377
-0.010377
-0.010377
-0.010377
-0.010377
-0.010377
-0.010377
-0.033377
-0.033376
-0.033375
-0.033374
-0.033375
-0.033376
-0.033377
-0.033377
-0.033377
-0.033377
-0.033376
-0.033376
-0.033376
-0.033376
-0.033376
-0.033376
-0.033376
-0.033376
-0.033377
-0.033377
-0.056376
-0.056375
-0.056375
-0.056375
-0.056375
-0.056375
-0.056376
-0.056376
-0.056376
-0.056376
-0.056376
-0.056376
-0.056376
-0.056376
-0.056376
-0.056376
-0.056376
-0.056376
-0.056376
-0.056376
-0.079375
-0.079375
-0.079375
-0.079375
-0.079375
-0.079375
-0.079375
-0.079375
-0.079376
-0.079376
-0.079376
-0.079375
-0.079375
-0.079375
-0.079376
-0.079376
-0.079376
-0.079376
-0.079376
-0.079376
-0.102375
-0.102375
-0.102375
-0.102374
-0.102374
-0.102374
-0.102375
-0.102375
-0.102375
-0.102375
-0.102375
-0.102375
-0.102375
-0.102375
-0.102375
-0.102375
-0.102376
-0.102376
-0.102376
-0.102376
-0.125374
-0.125374
-0.125374
-0.125374
-0.125374
-0.125374
-0.125374
-0.125375
-0.125375
-0.125375
-0.125375
-0.125375
-0.125375
-0.125375
-0.125375
-0.125375
-0.125375
-0.125375
-0.125376
-0.125376
-0.148374
-0.148374
-0.148374
-0.148374
-0.148374
-0.148374
-0.148374
-0.148375
-0.148375
-0.148375
-0.148375
-0.148375
-0.148375
-0.148375
-0.148375
-0.148375
-0.148375
-0.148375
-0.148375
-0.148375
-0.171374
-0.171374
-0.171374
-0.171374
-0.171374
-0.171374
-0.171374
-0.171374
-0.171375
-0.171375
-0.171375
-0.171375
-0.171375
-0.171375
-0.171375
-0.171375
-0.171375
-0.171375
-0.171375
-0.171375
-0.194373
-0.194374
-0.194374
-0.194374
-0.194374
-0.194374
-0.194374
-0.194374
-0.194374
-0.194375
-0.194375
-0.194375
-0.194375
-0.194375
-0.194375
-0.194375
-0.194375
-0.194375
-0.194375
-0.194375

SCALARS temperature float 1 
LOOKUP_TABLE default 
0.000000
0.000000
0.000000
0.000000
0.000000
0.000000
0.000000
0.000000
0.000000
0.000000
0.000000
0.000000
0.000000
0.000000
0.000000
0.000000
0.000000
0.000000
0.000000
0.000000
0.000000
0.000000
0.000000
0.000000
0.000000
0.000000
0.000000
0.000000
0.000000
0.000000
0.000000
0.000000
0.000000
0.000000
0.000000
0.000000
0.000000
0.000000
0.000000
0.000000
0.000000
0.000000
0.000000
0.000000
0.000000
0.000000
0.000000
0.000000
0.000000
0.000000
0.000000
0.000000
0.000000
0.000000
0.000000
0.000000
0.000000
0.000000
0.000000
0.000000
0.000000
0.000000
0.000000
0.000000
0.000000
0.000000
0.000000
0.000000
0.000000
0.000000
0.000000
0.000000
0.000000
0.000000
0.000000
0.000000
0.000000
0.000000
0.000000
0.000000
0.000000
0.000000
0.000000
0.000000
0.000000
0.000000
0.000001
0.000002
0.000003
0.000003
0.000002
0.000001
0.000001
0.000000
0.000000
0.000000
0.000000
0.000000
0.000000
0.000000
0.000000
0.000000
0.000000
0.000000
0.000001
0.000003
0.000007
0.000013
0.000019
0.000019
0.000015
0.000008
0.000004
0.000001
0.000000
0.000000
0.000000
0.000000
0.000000
0.000000
0.000000
0.000000
0.000000
0.000001
0.000004
0.000013
0.000034
0.000065
0.000091
0.000093
0.000070
0.000039
0.000016
0.000005
0.000001
0.000000
0.000000
0.000000
0.000000
0.000000
0.000000
0.000000
0.000000
0.000003
0.000014
0.000048
0.000127
0.000245
0.000344
0.000349
0.000259
0.000141
0.000058
0.000018
0.000005
0.000001
0.000000
0.000000
0.000000
0.000000
0.000000
0.000000
0.000001
0.000008
0.000037
0.000133
0.000354
0.000688
0.000966
0.000977
0.000715
0.000384
0.000154
0.000048
0.000012
0.000002
0.000000
0.000000
0.000000
0.000000
0.000000
0.000000
0.000003
0.000016
0.000074
0.000266
0.000713
0.001397
0.001970
0.001987
0.001442
0.000763
0.000302
0.000092
0.000022
0.000004
0.000001
0.000000
0.000000
0.000000
0.000000
0.000000
0.000004
0.000022
0.000105
0.000377
0.001015
0.001996
0.002819
0.002841
0.002053
0.001080
0.000424
0.000129
0.000031
0.000006
0.000001
0.000000
0.000000
0.000000
0.000000
0.000000
0.000004
0.000023
0.000105
0.000376
0.001008
0.001976
0.002787
0.002811
0.002035
0.001074
0.000424
0.000129
0.000031
0.000006
0.000001
0.000000
0.000000
0.000000
0.000000
0.000000
0.000003
0.000016
0.000076
0.000267
0.000705
0.001369
0.001922
0.001942
0.001417
0.000758
0.000304
0.000094
0.000023
0.000005
0.000001
0.000000
0.000000
0.000000
0.000000
0.000000
0.000002
0.000009
0.000040
0.000137
0.000356
0.000682
0.000952
0.000965
0.000713
0.000389
0.000160
0.000051
0.000013
0.000003
0.000000
0.000000
0.000000
0.000000
0.000000
0.000000
0.000001
0.000004
0.000016
0.000053
0.000134
0.000254
0.000353
0.000359
0.000269
0.000150
0.000063
0.000021
0.000005
0.000001
0.000000
0.000000
0.000000
0.000000
0.000000
0.000000
0.000000
0.000001
0.000005
0.000016
0.000039
0.000073
0.000101
0.000104
0.000079
0.000045
0.000019
0.000007
0.000002
0.000000
0.000000
0.000000
0.000000
0.000000
0.000000
0.000000
0.000000
0.000000
0.000001
0.000004
0.000009
0.000017
0.000023
0.000024
0.000018
0.000011
0.000005
0.000002
0.000000
0.000000
0.000000
0.000000
0.000000
0.000000
0.000000
0.000000
0.000000
0.000000
0.000000
0.000001
0.000002
0.000003
0.000004
0.000005
0.000004
0.000002
0.000001
0.000000
0.000000
0.000000
0.000000
0.000000
0.000000
0.000000
0.000000
0.000000
0.000000
0.000000
0.000000
0.000000
0.000000
0.000001
0.000001
0.000001
0.000001
0.000000
0.000000
0.000000
0.000000
0.000000
0.000000
0.000000
0.000000
0.000000
0.000000
0.000000
0.000000
0.000000
0.000000
0.000000
0.000000
0.000000
0.000000
0.000000
0.000000
0.000000
0.000000
0.000000
0.000000
0.000000
0.000000
0.000000
0.000000
0.000000


SCALARS Species_1 float 1 
LOOKUP_TABLE default 
0.000000
0.000000
0.000001
0.000003
0.000009
0.000028
0.000073
0.000170
0.000344
0.000602
0.000904
0.001163
0.001278
0.001201
0.000970
0.000678
0.000415
0.000225
0.000113
0.000062
0.000000
0.000000
0.000002
0.000007
0.000022
0.000065
0.000170
0.000388
0.000774
0.001338
0.001990
0.002535
0.002765
0.002584
0.002079
0.001451
0.000886
0.000481
0.000241
0.000134
0.000000
0.000001
0.000005
0.000017
0.000057
0.000165
0.000424
0.000959
0.001893
0.003237
0.004771
0.006035
0.006540
0.006083
0.004876
0.003393
0.002069
0.001122
0.000563
0.000314
0.000001
0.000003
0.000011
0.000041
0.000131
0.000376
0.000956
0.002138
0.004178
0.007084
0.010361
0.013020
0.014037
0.013002
0.010391
0.007216
0.004396
0.002383
0.001198
0.000671
0.000001
0.000006
0.000023
0.000083
0.000264
0.000750
0.001886
0.004176
0.008089
0.013606
0.019765
0.024697
0.026508
0.024472
0.019513
0.013532
0.008239
0.004468
0.002249
0.001264
0.000002
0.000011
0.000042
0.000146
0.000461
0.001294
0.003224
0.007080
0.013605
0.022727
0.032819
0.040812
0.043642
0.040185
0.031992
0.022171
0.013500
0.007327
0.003696
0.002086
0.000003
0.000016
0.000064
0.000222
0.000691
0.001922
0.004751
0.010355
0.019763
0.032818
0.047158
0.058415
0.062288
0.057251
0.045541
0.031562
0.019235
0.010457
0.005289
0.002997
0.000004
0.000022
0.000083
0.000287
0.000886
0.002448
0.006008
0.013011
0.024693
0.040809
0.058413
0.072145
0.076784
0.070511
0.056092
0.038909
0.023751
0.012943
0.006569
0.003739
0.000005
0.000024
0.000093
0.000316
0.000971
0.002667
0.006509
0.014025
0.026501
0.043637
0.062284
0.076782
0.081643
0.074976
0.059701
0.041487
0.025388
0.013880
0.007074
0.004045
0.000004
0.000023
0.000088
0.000298
0.000911
0.002491
0.006052
0.012988
0.024462
0.040177
0.057245
0.070507
0.074974
0.068920
0.054981
0.038309
0.023523
0.012912
0.006613
0.003800
0.000004
0.000019
0.000071
0.000242
0.000735
0.002002
0.004849
0.010377
0.019502
0.031981
0.045532
0.056085
0.059697
0.054979
0.043980
0.030753
0.018963
0.010460
0.005387
0.003112
0.000003
0.000013
0.000050
0.000169
0.000514
0.001395
0.003372
0.007203
0.013519
0.022157
0.031549
0.038897
0.041476
0.038301
0.030747
0.021593
0.013382
0.007423
0.003847
0.002235
0.000002
0.000008
0.000031
0.000104
0.000314
0.000851
0.002053
0.004383
0.008222
0.013477
0.019205
0.023718
0.025353
0.023491
0.018938
0.013366
0.008330
0.004650
0.002426
0.001418
0.000001
0.000004
0.000017
0.000056
0.000170
0.000459
0.001106
0.002361
0.004429
0.007266
0.010369
0.012834
0.013761
0.012800
0.010368
0.007358
0.004614
0.002593
0.001363
0.000801
0.000000
0.000002
0.000008
0.000027
0.000082
0.000221
0.000533
0.001137
0.002135
0.003506
0.005013
0.006221
0.006694
0.006254
0.005092
0.003635
0.002295
0.001299
0.000688
0.000407
0.000000
0.000001
0.000004
0.000012
0.000036
0.000096
0.000232
0.000495
0.000929
0.001528
0.002190
0.002726
0.002945
0.002764
0.002263
0.001626
0.001033
0.000589
0.000315
0.000187
0.000000
0.000000
0.000001
0.000005
0.000014
0.000038
0.000092
0.000196
0.000369
0.000607
0.000872
0.001090
0.001182
0.001115
0.000918
0.000664
0.000425
0.000244
0.000131
0.000079
0.000000
0.000000
0.000001
0.000002
0.000005
0.000014
0.000033
0.000071
0.000134
0.000222
0.000320
0.000401
0.000436
0.000414
0.000343
0.000249
0.000161
0.000093
0.000051
0.000030
0.000000
0.000000
0.000000
0.000001
0.000002
0.000005
0.000011
0.000024
0.000046
0.000076
0.000110
0.000139
0.000152
0.000145
0.000121
0.000088
0.000057
0.000034
0.000018
0.000011
0.000000
0.000000
0.000000
0.000000
0.000001
0.000002
0.000004
0.000009
0.000018
0.000029
0.000043
0.000054
0.000060
0.000057
0.000048
0.000035
0.000023
0.000014
0.000008
0.000005


SCALARS Species_2 float 1 
LOOKUP_TABLE default 
0.000000
0.000000
0.000001
0.000001
0.000001
0.000002
0.000001
0.000001
0.000001
0.000001
0.000000
0.000000
0.000000
0.000000
0.000000
0.000000
0.000000
0.000000
0.000000
0.000000
0.000000
0.000001
0.000003
0.000004
0.000005
0.000006
0.000006
0.000005
0.000003
0.000002
0.000001
0.000001
0.000000
0.000000
0.000000
0.000000
0.000000
0.000000
0.000000
0.000000
0.000002
0.000005
0.000011
0.000017
0.000022
0.000025