# vtk DataFile Version 2.0
generated by CFD-lab course output (written by Tobias Neckel) 
ASCII

DATASET STRUCTURED_GRID
DIMENSIONS  21 21 1 
POINTS 441 float

0.000000 0.000000 0
0.100000 0.000000 0
0.200000 0.000000 0
0.300000 0.000000 0
0.400000 0.000000 0
0.500000 0.000000 0
0.600000 0.000000 0
0.700000 0.000000 0
0.800000 0.000000 0
0.900000 0.000000 0
1.000000 0.000000 0
1.100000 0.000000 0
1.200000 0.000000 0
1.300000 0.000000 0
1.400000 0.000000 0
1.500000 0.000000 0
1.600000 0.000000 0
1.700000 0.000000 0
1.800000 0.000000 0
1.900000 0.000000 0
2.000000 0.000000 0
0.000000 0.100000 0
0.100000 0.100000 0
0.200000 0.100000 0
0.300000 0.100000 0
0.400000 0.100000 0
0.500000 0.100000 0
0.600000 0.100000 0
0.700000 0.100000 0
0.800000 0.100000 0
0.900000 0.100000 0
1.000000 0.100000 0
1.100000 0.100000 0
1.200000 0.100000 0
1.300000 0.100000 0
1.400000 0.100000 0
1.500000 0.100000 0
1.600000 0.100000 0
1.700000 0.100000 0
1.800000 0.100000 0
1.900000 0.100000 0
2.000000 0.100000 0
0.000000 0.200000 0
0.100000 0.200000 0
0.200000 0.200000 0
0.300000 0.200000 0
0.400000 0.200000 0
0.500000 0.200000 0
0.600000 0.200000 0
0.700000 0.200000 0
0.800000 0.200000 0
0.900000 0.200000 0
1.000000 0.200000 0
1.100000 0.200000 0
1.200000 0.200000 0
1.300000 0.200000 0
1.400000 0.200000 0
1.500000 0.200000 0
1.600000 0.200000 0
1.700000 0.200000 0
1.800000 0.200000 0
1.900000 0.200000 0
2.000000 0.200000 0
0.000000 0.300000 0
0.100000 0.300000 0
0.200000 0.300000 0
0.300000 0.300000 0
0.400000 0.300000 0
0.500000 0.300000 0
0.600000 0.300000 0
0.700000 0.300000 0
0.800000 0.300000 0
0.900000 0.300000 0
1.000000 0.300000 0
1.100000 0.300000 0
1.200000 0.300000 0
1.300000 0.300000 0
1.400000 0.300000 0
1.500000 0.300000 0
1.600000 0.300000 0
1.700000 0.300000 0
1.800000 0.300000 0
1.900000 0.300000 0
2.000000 0.300000 0
0.000000 0.400000 0
0.100000 0.400000 0
0.200000 0.400000 0
0.300000 0.400000 0
0.400000 0.400000 0
0.500000 0.400000 0
0.600000 0.400000 0
0.700000 0.400000 0
0.800000 0.400000 0
0.900000 0.400000 0
1.000000 0.400000 0
1.100000 0.400000 0
1.200000 0.400000 0
1.300000 0.400000 0
1.400000 0.400000 0
1.500000 0.400000 0
1.600000 0.400000 0
1.700000 0.400000 0
1.800000 0.400000 0
1.900000 0.400000 0
2.000000 0.400000 0
0.000000 0.500000 0
0.100000 0.500000 0
0.200000 0.500000 0
0.300000 0.500000 0
0.400000 0.500000 0
0.500000 0.500000 0
0.600000 0.500000 0
0.700000 0.500000 0
0.800000 0.500000 0
0.900000 0.500000 0
1.000000 0.500000 0
1.100000 0.500000 0
1.200000 0.500000 0
1.300000 0.500000 0
1.400000 0.500000 0
1.500000 0.500000 0
1.600000 0.500000 0
1.700000 0.500000 0
1.800000 0.500000 0
1.900000 0.500000 0
2.000000 0.500000 0
0.000000 0.600000 0
0.100000 0.600000 0
0.200000 0.600000 0
0.300000 0.600000 0
0.400000 0.600000 0
0.500000 0.600000 0
0.600000 0.600000 0
0.700000 0.600000 0
0.800000 0.600000 0
0.900000 0.600000 0
1.000000 0.600000 0
1.100000 0.600000 0
1.200000 0.600000 0
1.300000 0.600000 0
1.400000 0.600000 0
1.500000 0.600000 0
1.600000 0.600000 0
1.700000 0.600000 0
1.800000 0.600000 0
1.900000 0.600000 0
2.000000 0.600000 0
0.000000 0.700000 0
0.100000 0.700000 0
0.200000 0.700000 0
0.300000 0.700000 0
0.400000 0.700000 0
0.500000 0.700000 0
0.600000 0.700000 0
0.700000 0.700000 0
0.800000 0.700000 0
0.900000 0.700000 0
1.000000 0.700000 0
1.100000 0.700000 0
1.200000 0.700000 0
1.300000 0.700000 0
1.400000 0.700000 0
1.500000 0.700000 0
1.600000 0.700000 0
1.700000 0.700000 0
1.800000 0.700000 0
1.900000 0.700000 0
2.000000 0.700000 0
0.000000 0.800000 0
0.100000 0.800000 0
0.200000 0.800000 0
0.300000 0.800000 0
0.400000 0.800000 0
0.500000 0.800000 0
0.600000 0.800000 0
0.700000 0.800000 0
0.800000 0.800000 0
0.900000 0.800000 0
1.000000 0.800000 0
1.100000 0.800000 0
1.200000 0.800000 0
1.300000 0.800000 0
1.400000 0.800000 0
1.500000 0.800000 0
1.600000 0.800000 0
1.700000 0.800000 0
1.800000 0.800000 0
1.900000 0.800000 0
2.000000 0.800000 0
0.000000 0.900000 0
0.100000 0.900000 0
0.200000 0.900000 0
0.300000 0.900000 0
0.400000 0.900000 0
0.500000 0.900000 0
0.600000 0.900000 0
0.700000 0.900000 0
0.800000 0.900000 0
0.900000 0.900000 0
1.000000 0.900000 0
1.100000 0.900000 0
1.200000 0.900000 0
1.300000 0.900000 0
1.400000 0.900000 0
1.500000 0.900000 0
1.600000 0.900000 0
1.700000 0.900000 0
1.800000 0.900000 0
1.900000 0.900000 0
2.000000 0.900000 0
0.000000 1.000000 0
0.100000 1.000000 0
0.200000 1.000000 0
0.300000 1.000000 0
0.400000 1.000000 0
0.500000 1.000000 0
0.600000 1.000000 0
0.700000 1.000000 0
0.800000 1.000000 0
0.900000 1.000000 0
1.000000 1.000000 0
1.100000 1.000000 0
1.200000 1.000000 0
1.300000 1.000000 0
1.400000 1.000000 0
1.500000 1.000000 0
1.600000 1.000000 0
1.700000 1.000000 0
1.800000 1.000000 0
1.900000 1.000000 0
2.000000 1.000000 0
0.000000 1.100000 0
0.100000 1.100000 0
0.200000 1.100000 0
0.300000 1.100000 0
0.400000 1.100000 0
0.500000 1.100000 0
0.600000 1.100000 0
0.700000 1.100000 0
0.800000 1.100000 0
0.900000 1.100000 0
1.000000 1.100000 0
1.100000 1.100000 0
1.200000 1.100000 0
1.300000 1.100000 0
1.400000 1.100000 0
1.500000 1.100000 0
1.600000 1.100000 0
1.700000 1.100000 0
1.800000 1.100000 0
1.900000 1.100000 0
2.000000 1.100000 0
0.000000 1.200000 0
0.100000 1.200000 0
0.200000 1.200000 0
0.300000 1.200000 0
0.400000 1.200000 0
0.500000 1.200000 0
0.600000 1.200000 0
0.700000 1.200000 0
0.800000 1.200000 0
0.900000 1.200000 0
1.000000 1.200000 0
1.100000 1.200000 0
1.200000 1.200000 0
1.300000 1.200000 0
1.400000 1.200000 0
1.500000 1.200000 0
1.600000 1.200000 0
1.700000 1.200000 0
1.800000 1.200000 0
1.900000 1.200000 0
2.000000 1.200000 0
0.000000 1.300000 0
0.100000 1.300000 0
0.200000 1.300000 0
0.300000 1.300000 0
0.400000 1.300000 0
0.500000 1.300000 0
0.600000 1.300000 0
0.700000 1.300000 0
0.800000 1.300000 0
0.900000 1.300000 0
1.000000 1.300000 0
1.100000 1.300000 0
1.200000 1.300000 0
1.300000 1.300000 0
1.400000 1.300000 0
1.500000 1.300000 0
1.600000 1.300000 0
1.700000 1.300000 0
1.800000 1.300000 0
1.900000 1.300000 0
2.000000 1.300000 0
0.000000 1.400000 0
0.100000 1.400000 0
0.200000 1.400000 0
0.300000 1.400000 0
0.400000 1.400000 0
0.500000 1.400000 0
0.600000 1.400000 0
0.700000 1.400000 0
0.800000 1.400000 0
0.900000 1.400000 0
1.000000 1.400000 0
1.100000 1.400000 0
1.200000 1.400000 0
1.300000 1.400000 0
1.400000 1.400000 0
1.500000 1.400000 0
1.600000 1.400000 0
1.700000 1.400000 0
1.800000 1.400000 0
1.900000 1.400000 0
2.000000 1.400000 0
0.000000 1.500000 0
0.100000 1.500000 0
0.200000 1.500000 0
0.300000 1.500000 0
0.400000 1.500000 0
0.500000 1.500000 0
0.600000 1.500000 0
0.700000 1.500000 0
0.800000 1.500000 0
0.900000 1.500000 0
1.000000 1.500000 0
1.100000 1.500000 0
1.200000 1.500000 0
1.300000 1.500000 0
1.400000 1.500000 0
1.500000 1.500000 0
1.600000 1.500000 0
1.700000 1.500000 0
1.800000 1.500000 0
1.900000 1.500000 0
2.000000 1.500000 0
0.000000 1.600000 0
0.100000 1.600000 0
0.200000 1.600000 0
0.300000 1.600000 0
0.400000 1.600000 0
0.500000 1.600000 0
0.600000 1.600000 0
0.700000 1.600000 0
0.800000 1.600000 0
0.900000 1.600000 0
1.000000 1.600000 0
1.100000 1.600000 0
1.200000 1.600000 0
1.300000 1.600000 0
1.400000 1.600000 0
1.500000 1.600000 0
1.600000 1.600000 0
1.700000 1.600000 0
1.800000 1.600000 0
1.900000 1.600000 0
2.000000 1.600000 0
0.000000 1.700000 0
0.100000 1.700000 0
0.200000 1.700000 0
0.300000 1.700000 0
0.400000 1.700000 0
0.500000 1.700000 0
0.600000 1.700000 0
0.700000 1.700000 0
0.800000 1.700000 0
0.900000 1.700000 0
1.000000 1.700000 0
1.100000 1.700000 0
1.200000 1.700000 0
1.300000 1.700000 0
1.400000 1.700000 0
1.500000 1.700000 0
1.600000 1.700000 0
1.700000 1.700000 0
1.800000 1.700000 0
1.900000 1.700000 0
2.000000 1.700000 0
0.000000 1.800000 0
0.100000 1.800000 0
0.200000 1.800000 0
0.300000 1.800000 0
0.400000 1.800000 0
0.500000 1.800000 0
0.600000 1.800000 0
0.700000 1.800000 0
0.800000 1.800000 0
0.900000 1.800000 0
1.000000 1.800000 0
1.100000 1.800000 0
1.200000 1.800000 0
1.300000 1.800000 0
1.400000 1.800000 0
1.500000 1.800000 0
1.600000 1.800000 0
1.700000 1.800000 0
1.800000 1.800000 0
1.900000 1.800000 0
2.000000 1.800000 0
0.000000 1.900000 0
0.100000 1.900000 0
0.200000 1.900000 0
0.300000 1.900000 0
0.400000 1.900000 0
0.500000 1.900000 0
0.600000 1.900000 0
0.700000 1.900000 0
0.800000 1.900000 0
0.900000 1.900000 0
1.000000 1.900000 0
1.100000 1.900000 0
1.200000 1.900000 0
1.300000 1.900000 0
1.400000 1.900000 0
1.500000 1.900000 0
1.600000 1.900000 0
1.700000 1.900000 0
1.800000 1.900000 0
1.900000 1.900000 0
2.000000 1.900000 0
0.000000 2.000000 0
0.100000 2.000000 0
0.200000 2.000000 0
0.300000 2.000000 0
0.400000 2.000000 0
0.500000 2.000000 0
0.600000 2.000000 0
0.700000 2.000000 0
0.800000 2.000000 0
0.900000 2.000000 0
1.000000 2.000000 0
1.100000 2.000000 0
1.200000 2.000000 0
1.300000 2.000000 0
1.400000 2.000000 0
1.500000 2.000000 0
1.600000 2.000000 0
1.700000 2.000000 0
1.800000 2.000000 0
1.900000 2.000000 0
2.000000 2.000000 0
POINT_DATA 441 

VECTORS velocity float
0.000000 0.000000 0
-0.000012 0.000000 0
-0.000005 0.000000 0
0.000004 0.000000 0
0.000008 0.000000 0
0.000007 0.000000 0
0.000002 0.000000 0
-0.000002 0.000000 0
-0.000005 0.000000 0
-0.000004 0.000000 0
-0.000002 0.000000 0
-0.000000 0.000000 0
0.000001 0.000000 0
0.000001 0.000000 0
0.000001 0.000000 0
0.000000 0.000000 0
-0.000000 0.000000 0
-0.000000 0.000000 0
-0.000000 0.000000 0
-0.000000 0.000000 0
-0.000000 0.000000 0
0.000000 -0.000011 0
0.000001 -0.000003 0
0.000009 0.000008 0
0.000014 0.000009 0
0.000014 0.000004 0
0.000011 -0.000004 0
0.000006 -0.000008 0
0.000001 -0.000006 0
-0.000004 -0.000000 0
-0.000010 0.000006 0
-0.000016 0.000010 0
-0.000022 0.000010 0
-0.000028 0.000008 0
-0.000032 0.000005 0
-0.000035 0.000002 0
-0.000037 0.000000 0
-0.000037 -0.000000 0
-0.000037 -0.000001 0
-0.000037 -0.000001 0
-0.000036 -0.000000 0
-0.000036 -0.000000 0
0.000000 0.000004 0
0.000009 -0.000000 0
0.000010 -0.000003 0
0.000009 -0.000008 0
0.000010 -0.000010 0
0.000011 -0.000006 0
0.000010 0.000002 0
0.000007 0.000011 0
0.000001 0.000017 0
-0.000008 0.000019 0
-0.000017 0.000018 0
-0.000025 0.000014 0
-0.000032 0.000009 0
-0.000036 0.000005 0
-0.000038 0.000003 0
-0.000039 0.000001 0
-0.000039 0.000000 0
-0.000039 -0.000000 0
-0.000038 -0.000001 0
-0.000038 -0.000001 0
-0.000038 -0.000000 0
0.000000 0.000006 0
0.000006 -0.000011 0
0.000006 -0.000015 0
0.000010 -0.000012 0
0.000014 -0.000004 0
0.000018 0.000007 0
0.000017 0.000016 0
0.000012 0.000021 0
0.000003 0.000024 0
-0.000009 0.000023 0
-0.000020 0.000021 0
-0.000029 0.000017 0
-0.000035 0.000013 0
-0.000038 0.000009 0
-0.000040 0.000005 0
-0.000040 0.000003 0
-0.000040 0.000001 0
-0.000039 -0.000001 0
-0.000038 -0.000001 0
-0.000038 -0.000001 0
-0.000037 -0.000001 0
0.000000 -0.000003 0
0.000003 -0.000021 0
0.000009 -0.000017 0
0.000016 -0.000008 0
0.000022 0.000001 0
0.000024 0.000009 0
0.000022 0.000016 0
0.000015 0.000023 0
0.000004 0.000028 0
-0.000009 0.000031 0
-0.000021 0.000031 0
-0.000031 0.000027 0
-0.000038 0.000021 0
-0.000042 0.000014 0
-0.000043 0.000007 0
-0.000042 0.000002 0
-0.000041 -0.000001 0
-0.000039 -0.000002 0
-0.000038 -0.000002 0
-0.000037 -0.000001 0
-0.000037 -0.000001 0
0.000000 -0.000004 0
0.000007 -0.000024 0
0.000015 -0.000018 0
0.000022 -0.000012 0
0.000026 -0.000006 0
0.000028 0.000003 0
0.000027 0.000015 0
0.000020 0.000029 0
0.000008 0.000041 0
-0.000007 0.000047 0
-0.000022 0.000046 0
-0.000035 0.000038 0
-0.000043 0.000027 0
-0.000046 0.000015 0
-0.000046 0.000006 0
-0.000044 0.000000 0
-0.000041 -0.000003 0
-0.000038 -0.000004 0
-0.000036 -0.000004 0
-0.000035 -0.000002 0
-0.000035 -0.000001 0
0.000000 0.000001 0
0.000010 -0.000029 0
0.000017 -0.000028 0
0.000023 -0.000024 0
0.000029 -0.000014 0
0.000034 0.000001 0
0.000035 0.000021 0
0.000028 0.000043 0
0.000014 0.000059 0
-0.000005 0.000066 0
-0.000025 0.000062 0
-0.000040 0.000048 0
-0.000048 0.000031 0
-0.000050 0.000016 0
-0.000048 0.000004 0
-0.000044 -0.000003 0
-0.000040 -0.000006 0
-0.000037 -0.000007 0
-0.000034 -0.000005 0
-0.000033 -0.000003 0
-0.000032 -0.000001 0
0.000000 0.000002 0
0.000009 -0.000039 0
0.000017 -0.000039 0
0.000025 -0.000032 0
0.000033 -0.000019 0
0.000040 0.000002 0
0.000042 0.000028 0
0.000035 0.000055 0
0.000019 0.000077 0
-0.000004 0.000086 0
-0.000027 0.000079 0
-0.000044 0.000059 0
-0.000052 0.000036 0
-0.000052 0.000015 0
-0.000048 0.000000 0
-0.000043 -0.000008 0
-0.000037 -0.000011 0
-0.000033 -0.000010 0
-0.000030 -0.000008 0
-0.000028 -0.000004 0
-0.000028 -0.000002 0
0.000000 -0.000001 0
0.000008 -0.000049 0
0.000016 -0.000048 0
0.000025 -0.000039 0
0.000034 -0.000025 0
0.000041 -0.000002 0
0.000043 0.000029 0
0.000037 0.000065 0
0.000021 0.000096 0
-0.000003 0.000110 0
-0.000027 0.000099 0
-0.000044 0.000072 0
-0.000050 0.000040 0
-0.000049 0.000013 0
-0.000044 -0.000005 0
-0.000037 -0.000014 0
-0.000032 -0.000016 0
-0.000027 -0.000014 0
-0.000024 -0.000010 0
-0.000023 -0.000005 0
-0.000022 -0.000002 0
0.000000 -0.000001 0
0.000006 -0.000056 0
0.000013 -0.000055 0
0.000020 -0.000048 0
0.000028 -0.000034 0
0.000034 -0.000009 0
0.000037 0.000029 0
0.000033 0.000076 0
0.000019 0.000116 0
-0.000002 0.000134 0
-0.000022 0.000120 0
-0.000036 0.000083 0
-0.000041 0.000042 0
-0.000039 0.000009 0
-0.000034 -0.000011 0
-0.000028 -0.000020 0
-0.000023 -0.000021 0
-0.000019 -0.000018 0
-0.000016 -0.000012 0
-0.000015 -0.000005 0
-0.000015 -0.000002 0
0.000000 0.000000 0
0.000004 -0.000060 0
0.000008 -0.000061 0
0.000011 -0.000055 0
0.000015 -0.000041 0
0.000019 -0.000014 0
0.000021 0.000030 0
0.000020 0.000084 0
0.000012 0.000132 0
0.000000 0.000153 0
-0.000012 0.000135 0
-0.000020 0.000091 0
-0.000022 0.000042 0
-0.000021 0.000005 0
-0.000017 -0.000016 0
-0.000014 -0.000025 0
-0.000011 -0.000025 0
-0.000008 -0.000020 0
-0.000007 -0.000014 0
-0.000006 -0.000006 0
-0.000006 -0.000002 0
0.000000 0.000000 0
0.000000 -0.000062 0
0.000000 -0.000064 0
-0.000000 -0.000058 0
-0.000001 -0.000043 0
-0.000001 -0.000015 0
-0.000000 0.000030 0
0.000000 0.000086 0
0.000001 0.000137 0
0.000002 0.000159 0
0.000002 0.000140 0
0.000003 0.000093 0
0.000003 0.000042 0
0.000003 0.000003 0
0.000003 -0.000018 0
0.000003 -0.000027 0
0.000003 -0.000026 0
0.000004 -0.000021 0
0.000004 -0.000014 0
0.000004 -0.000006 0
0.000004 -0.000002 0
0.000000 -0.000000 0
-0.000003 -0.000061 0
-0.000007 -0.000061 0
-0.000011 -0.000055 0
-0.000016 -0.000040 0
-0.000020 -0.000013 0
-0.000022 0.000030 0
-0.000019 0.000083 0
-0.000011 0.000130 0
0.000003 0.000150 0
0.000017 0.000133 0
0.000026 0.000090 0
0.000028 0.000042 0
0.000027 0.000005 0
0.000024 -0.000016 0
0.000020 -0.000025 0
0.000017 -0.000025 0
0.000015 -0.000021 0
0.000014 -0.000014 0
0.000013 -0.000006 0
0.000013 -0.000002 0
0.000000 -0.000000 0
-0.000006 -0.000055 0
-0.000013 -0.000055 0
-0.000020 -0.000048 0
-0.000028 -0.000034 0
-0.000034 -0.000009 0
-0.000037 0.000029 0
-0.000032 0.000074 0
-0.000017 0.000114 0
0.000005 0.000131 0
0.000027 0.000117 0
0.000041 0.000081 0
0.000046 0.000041 0
0.000045 0.000008 0
0.000040 -0.000012 0
0.000034 -0.000020 0
0.000030 -0.000021 0
0.000026 -0.000018 0
0.000024 -0.000012 0
0.000023 -0.000005 0
0.000022 -0.000002 0
0.000000 0.000000 0
-0.000008 -0.000047 0
-0.000016 -0.000047 0
-0.000025 -0.000040 0
-0.000034 -0.000026 0
-0.000041 -0.000004 0
-0.000043 0.000027 0
-0.000036 0.000063 0
-0.000019 0.000094 0
0.000006 0.000107 0
0.000031 0.000097 0
0.000048 0.000070 0
0.000055 0.000038 0
0.000055 0.000011 0
0.000050 -0.000006 0
0.000044 -0.000015 0
0.000039 -0.000017 0
0.000035 -0.000015 0
0.000032 -0.000010 0
0.000030 -0.000005 0
0.000030 -0.000002 0
0.000000 0.000000 0
-0.000008 -0.000039 0
-0.000017 -0.000037 0
-0.000027 -0.000031 0
-0.000035 -0.000019 0
-0.000040 -0.000000 0
-0.000041 0.000024 0
-0.000033 0.000051 0
-0.000016 0.000073 0
0.000007 0.000082 0
0.000030 0.000076 0
0.000048 0.000057 0
0.000056 0.000034 0
0.000058 0.000013 0
0.000055 -0.000001 0
0.000050 -0.000009 0
0.000045 -0.000012 0
0.000041 -0.000011 0
0.000038 -0.000008 0
0.000037 -0.000004 0
0.000036 -0.000001 0
0.000000 -0.000000 0
-0.000008 -0.000030 0
-0.000017 -0.000028 0
-0.000025 -0.000022 0
-0.000032 -0.000013 0
-0.000036 0.000002 0
-0.000035 0.000020 0
-0.000027 0.000039 0
-0.000012 0.000054 0
0.000008 0.000060 0
0.000028 0.000056 0
0.000044 0.000044 0
0.000053 0.000028 0
0.000057 0.000013 0
0.000056 0.000002 0
0.000052 -0.000005 0
0.000049 -0.000008 0
0.000045 -0.000008 0
0.000043 -0.000006 0
0.000041 -0.000003 0
0.000041 -0.000001 0
0.000000 -0.000000 0
-0.000008 -0.000022 0
-0.000016 -0.000020 0
-0.000023 -0.000015 0
-0.000029 -0.000008 0
-0.000031 0.000002 0
-0.000029 0.000015 0
-0.000022 0.000028 0
-0.000008 0.000037 0
0.000009 0.000042 0
0.000026 0.000039 0
0.000040 0.000032 0
0.000049 0.000021 0
0.000054 0.000011 0
0.000054 0.000003 0
0.000053 -0.000002 0
0.000050 -0.000005 0
0.000048 -0.000005 0
0.000046 -0.000004 0
0.000044 -0.000002 0
0.000044 -0.000001 0
0.000000 -0.000000 0
-0.000008 -0.000014 0
-0.000015 -0.000013 0
-0.000021 -0.000010 0
-0.000026 -0.000005 0
-0.000027 0.000002 0
-0.000025 0.000010 0
-0.000017 0.000018 0
-0.000005 0.000024 0
0.000009 0.000026 0
0.000024 0.000025 0
0.000037 0.000020 0
0.000046 0.000014 0
0.000051 0.000008 0
0.000053 0.000003 0
0.000053 -0.000001 0
0.000051 -0.000003 0
0.000049 -0.000003 0
0.000048 -0.000002 0
0.000046 -0.000001 0
0.000046 -0.000001 0
0.000000 0.000000 0
-0.000007 -0.000007 0
-0.000014 -0.000006 0
-0.000020 -0.000005 0
-0.000023 -0.000002 0
-0.000024 0.000001 0
-0.000021 0.000005 0
-0.000014 0.000008 0
-0.000004 0.000011 0
0.000009 0.000012 0
0.000022 0.000012 0
0.000034 0.000010 0
0.000043 0.000007 0
0.000048 0.000004 0
0.000050 0.000001 0
0.000051 -0.000000 0
0.000050 -0.000001 0
0.000048 -0.000001 0
0.000047 -0.000001 0
0.000046 -0.000001 0
0.000045 -0.000000 0
0.000000 0.000000 0
-0.000000 0.000000 0
-0.000000 0.000000 0
-0.000000 0.000000 0
-0.000000 0.000000 0
-0.000000 0.000000 0
-0.000000 0.000000 0
-0.000000 0.000000 0
-0.000000 0.000000 0
-0.000000 0.000000 0
0.000000 0.000000 0
0.000000 0.000000 0
0.000000 0.000000 0
0.000000 0.000000 0
0.000000 0.000000 0
0.000000 0.000000 0
0.000000 0.000000 0
0.000000 0.000000 0
0.000000 0.000000 0
0.000000 0.000000 0
0.000000 0.000000 0

CELL_DATA 400 
SCALARS pressure float 1 
LOOKUP_TABLE default 
0.242595
0.242643
0.242663
0.242648
0.242615
0.242587
0.242577
0.242586
0.242605
0.242623
0.242632
0.242633
0.242629
0.242623
0.242619
0.242618
0.242618
0.242619
0.242621
0.242621
0.219640
0.219630
0.219609
0.219594
0.219594
0.219606
0.219621
0.219631
0.219633
0.219629
0.219622
0.219616
0.219614
0.219615
0.219617
0.219619
0.219620
0.219621
0.219622
0.219622
0.196623
0.196595
0.196592
0.196610
0.196632
0.196645
0.196643
0.196631
0.196617
0.196608
0.196606
0.196609
0.196614
0.196619
0.196621
0.196622
0.196622
0.196622
0.196622
0.196622
0.173600
0.173601
0.173620
0.173638
0.173643
0.173635
0.173621
0.173609
0.173603
0.173605
0.173611
0.173617
0.173621
0.173623
0.173622
0.173622
0.173621
0.173621
0.173621
0.173622
0.150612
0.150623
0.150628
0.150625
0.150619
0.150612
0.150610
0.150611
0.150615
0.150618
0.150620
0.150621
0.150620
0.150620
0.150620
0.150620
0.150620
0.150621
0.150621
0.150622
0.127628
0.127622
0.127612
0.127607
0.127610
0.127616
0.127622
0.127625
0.127624
0.127621
0.127618
0.127616
0.127616
0.127617
0.127619
0.127620
0.127621
0.127621
0.127622
0.127622
0.104625
0.104612
0.104608
0.104612
0.104621
0.104627
0.104628
0.104624
0.104619
0.104615
0.104614
0.104615
0.104617
0.104619
0.104620
0.104621
0.104621
0.104622
0.104622
0.104622
0.081619
0.081615
0.081618
0.081622
0.081624
0.081624
0.081621
0.081618
0.081616
0.081615
0.081616
0.081617
0.081619
0.081620
0.081621
0.081621
0.081621
0.081622
0.081622
0.081622
0.058622
0.058623
0.058622
0.058620
0.058618
0.058617
0.058618
0.058619
0.058620
0.058620
0.058620
0.058620
0.058620
0.058620
0.058621
0.058621
0.058621
0.058622
0.058622
0.058622
0.035626
0.035624
0.035619
0.035616
0.035616
0.035619
0.035622
0.035623
0.035623
0.035622
0.035621
0.035620
0.035620
0.035620
0.035621
0.035622
0.035622
0.035622
0.035622
0.035622
0.012625
0.012622
0.012619
0.012619
0.012621
0.012623
0.012624
0.012625
0.012624
0.012623
0.012622
0.012621
0.012621
0.012622
0.012622
0.012622
0.012623
0.012623
0.012623
0.012623
-0.010376
-0.010377
-0.010377
-0.010377
-0.010377
-0.010376
-0.010376
-0.010376
-0.010376
-0.010376
-0.010376
-0.010376
-0.010377
-0.010377
-0.010377
-0.010377
-0.010377
-0.010377
-0.010377
-0.010377
-0.033375
-0.033374
-0.033375
-0.033376
-0.033377
-0.033377
-0.033376
-0.033374
-0.033374
-0.033373
-0.033374
-0.033374
-0.033375
-0.033376
-0.033376
-0.033376
-0.033377
-0.033377
-0.033377
-0.033377
-0.056374
-0.056373
-0.056374
-0.056376
-0.056376
-0.056375
-0.056374
-0.056373
-0.056372
-0.056372
-0.056372
-0.056373
-0.056374
-0.056375
-0.056375
-0.056376
-0.056376
-0.056377
-0.056377
-0.056377
-0.079374
-0.079373
-0.079374
-0.079374
-0.079374
-0.079374
-0.079373
-0.079372
-0.079371
-0.079371
-0.079372
-0.079373
-0.079373
-0.079374
-0.079375
-0.079375
-0.079376
-0.079376
-0.079377
-0.079377
-0.102374
-0.102373
-0.102373
-0.102373
-0.102373
-0.102373
-0.102372
-0.102372
-0.102371
-0.102371
-0.102371
-0.102372
-0.102373
-0.102373
-0.102374
-0.102375
-0.102375
-0.102376
-0.102377
-0.102377
-0.125374
-0.125372
-0.125372
-0.125372
-0.125372
-0.125373
-0.125372
-0.125372
-0.125371
-0.125371
-0.125371
-0.125372
-0.125372
-0.125373
-0.125374
-0.125375
-0.125375
-0.125376
-0.125376
-0.125377
-0.148373
-0.148372
-0.148372
-0.148372
-0.148372
-0.148372
-0.148372
-0.148371
-0.148371
-0.148371
-0.148371
-0.148371
-0.148372
-0.148373
-0.148374
-0.148374
-0.148375
-0.148376
-0.148376
-0.148377
-0.171373
-0.171372
-0.171372
-0.171372
-0.171372
-0.171372
-0.171371
-0.171371
-0.171371
-0.171371
-0.171371
-0.171371
-0.171372
-0.171373
-0.171374
-0.171374
-0.171375
-0.171376
-0.171376
-0.171377
-0.194373
-0.194372
-0.194372
-0.194371
-0.194371
-0.194371
-0.194371
-0.194371
-0.194371
-0.194371
-0.194371
-0.194371
-0.194372
-0.194373
-0.194373
-0.194374
-0.194375
-0.194376
-0.194376
-0.194377

SCALARS temperature float 1 
LOOKUP_TABLE default 
0.000003
0.000028
0.000077
0.000151
0.000245
0.000352
0.000457
0.000544
0.000599
0.000611
0.000579
0.000513
0.000427
0.000335
0.000250
0.000179
0.000126
0.000090
0.000067
0.000057
0.000004
0.000034
0.000095
0.000187
0.000305
0.000440
0.000573
0.000683
0.000752
0.000766
0.000725
0.000639
0.000529
0.000412
0.000306
0.000218
0.000153
0.000108
0.000080
0.000068
0.000006
0.000049
0.000136
0.000269
0.000442
0.000641
0.000839
0.001005
0.001107
0.001125
0.001059
0.000927
0.000759
0.000585
0.000429
0.000302
0.000209
0.000146
0.000108
0.000091
0.000008
0.000074
0.000210
0.000418
0.000693
0.001013
0.001338
0.001612
0.001779
0.001803
0.001685
0.001459
0.001178
0.000894
0.000645
0.000447
0.000305
0.000210
0.000154
0.000128
0.000013
0.000116
0.000329
0.000661
0.001109
0.001642
0.002193
0.002664
0.002949
0.002982
0.002764
0.002361
0.001874
0.001396
0.000988
0.000673
0.000451
0.000306
0.000222
0.000184
0.000020
0.000176
0.000505
0.001028
0.001749
0.002631
0.003566
0.004378
0.004872
0.004914
0.004508
0.003790
0.002949
0.002151
0.001489
0.000995
0.000654
0.000438
0.000314
0.000258
0.000029
0.000257
0.000744
0.001536
0.002658
0.004072
0.005618
0.006996
0.007840
0.007890
0.007154
0.005901
0.004488
0.003195
0.002162
0.001414
0.000914
0.000603
0.000427
0.000349
0.000040
0.000355
0.001036
0.002168
0.003822
0.005977
0.008421
0.010669
0.012065
0.012116
0.010842
0.008754
0.006491
0.004504
0.002977
0.001907
0.001211
0.000788
0.000553
0.000449
0.000052
0.000457
0.001345
0.002852
0.005118
0.008176
0.011778
0.015206
0.017374
0.017419
0.015374
0.012139
0.008772
0.005937
0.003837
0.002414
0.001510
0.000970
0.000675
0.000546
0.000061
0.000543
0.001611
0.003453
0.006286
0.010225
0.015019
0.019724
0.022756
0.022788
0.019874
0.015391
0.010881
0.007213
0.004582
0.002841
0.001758
0.001120
0.000775
0.000625
0.000067
0.000594
0.001766
0.003807
0.006986
0.011479
0.017051
0.022618
0.026246
0.026272
0.022759
0.017432
0.012173
0.007980
0.005022
0.003093
0.001904
0.001209
0.000834
0.000672
0.000067
0.000594
0.001768
0.003806
0.006975
0.011445
0.016977
0.022499
0.026098
0.026131
0.022658
0.017380
0.012159
0.007985
0.005035
0.003106
0.001915
0.001218
0.000842
0.000679
0.000062
0.000546
0.001617
0.003456
0.006270
0.010160
0.014869
0.019477
0.022448
0.022498
0.019672
0.015296
0.010868
0.007243
0.004626
0.002884
0.001794
0.001149
0.000798
0.000645
0.000053
0.000465
0.001364
0.002878
0.005136
0.008157
0.011690
0.015037
0.017159
0.017224
0.015260
0.012121
0.008826
0.006023
0.003928
0.002492
0.001572
0.001019
0.000714
0.000580
0.000042
0.000369
0.001074
0.002233
0.003908
0.006068
0.008495
0.010715
0.012098
0.012169
0.010941
0.008901
0.006665
0.004676
0.003127
0.002028
0.001303
0.000857
0.000607
0.000496
0.000032
0.000280
0.000805
0.001649
0.002830
0.004298
0.005888
0.007296
0.008161
0.008229
0.007504
0.006245
0.004805
0.003467
0.002380
0.001580
0.001036
0.000693
0.000497
0.000409
0.000024
0.000207
0.000589
0.001190
0.002007
0.002991
0.004022
0.004913
0.005457
0.005516
0.005093
0.004323
0.003408
0.002522
0.001774
0.001205
0.000806
0.000548
0.000398
0.000330
0.000018
0.000154
0.000436
0.000870
0.001446
0.002123
0.002815
0.003402
0.003761
0.003811
0.003554
0.003065
0.002464
0.001863
0.001339
0.000927
0.000632
0.000436
0.000321
0.000268
0.000014
0.000121
0.000341
0.000674
0.001110
0.001612
0.002117
0.002541
0.002800
0.002844
0.002671
0.002331
0.001901
0.001460
0.001066
0.000750
0.000518
0.000362
0.000269
0.000226
0.000012
0.000106
0.000296
0.000582
0.000954
0.001379
0.001802
0.002155
0.002372
0.002413
0.002275
0.001997
0.001641
0.001271
0.000936
0.000664
0.000462
0.000325
0.000243
0.000204


SCALARS Species_1 float 1 
LOOKUP_TABLE default 
0.000483
0.001467
0.002497
0.003592
0.004756
0.005976
0.007219
0.008441
0.009584
0.010589
0.011402
0.011986
0.012322
0.012419
0.012311
0.012056
0.011724
0.011390
0.011124
0.010978
0.000497
0.001507
0.002565
0.003688
0.004881
0.006129
0.007401
0.008650
0.009818
0.010844
0.011675
0.012271
0.012615
0.012715
0.012607
0.012348
0.012011
0.011672
0.011402
0.011253
0.000520
0.001578
0.002684
0.003858
0.005103
0.006405
0.007730
0.009030
0.010246
0.011313
0.012177
0.012796
0.013153
0.013257
0.013145
0.012877
0.012528
0.012177
0.011898
0.011743
0.000550
0.001669
0.002838
0.004078
0.005391
0.006763
0.008158
0.009526
0.010804
0.011926
0.012833
0.013483
0.013857
0.013966
0.013849
0.013567
0.013201
0.012833
0.012540
0.012379
0.000583
0.001769
0.003006
0.004317
0.005704
0.007152
0.008624
0.010066
0.011412
0.012593
0.013547
0.014231
0.014624
0.014738
0.014614
0.014318
0.013933
0.013547
0.013239
0.013069
0.000614
0.001861
0.003163
0.004540
0.005997
0.007516
0.009059
0.010570
0.011979
0.013215
0.014214
0.014928
0.015339
0.015458
0.015328
0.015018
0.014616
0.014212
0.013891
0.013714
0.000638
0.001934
0.003286
0.004714
0.006225
0.007799
0.009397
0.010961
0.012419
0.013697
0.014729
0.015468
0.015892
0.016015
0.015881
0.015562
0.015147
0.014730
0.014398
0.014216
0.000652
0.001975
0.003354
0.004812
0.006351
0.007955
0.009583
0.011175
0.012658
0.013959
0.015008
0.015759
0.016191
0.016317
0.016181
0.015857
0.015436
0.015014
0.014677
0.014492
0.000652
0.001976
0.003355
0.004812
0.006350
0.007952
0.009577
0.011165
0.012646
0.013943
0.014990
0.015739
0.016171
0.016297
0.016163
0.015842
0.015423
0.015004
0.014669
0.014485
0.000638
0.001933
0.003282
0.004707
0.006210
0.007775
0.009362
0.010913
0.012358
0.013625
0.014647
0.015379
0.015801
0.015926
0.015797
0.015486
0.015080
0.014672
0.014347
0.014168
0.000610
0.001848
0.003137
0.004497
0.005933
0.007427
0.008942
0.010423
0.011803
0.013011
0.013988
0.014687
0.015091
0.015212
0.015092
0.014797
0.014412
0.014025
0.013716
0.013546
0.000569
0.001725
0.002928
0.004197
0.005537
0.006931
0.008344
0.009725
0.011012
0.012140
0.013051
0.013704
0.014083
0.014199
0.014089
0.013817
0.013460
0.013102
0.012815
0.012658
0.000519
0.001573
0.002670
0.003828
0.005050
0.006320
0.007609
0.008868
0.010042
0.011071
0.011903
0.012501
0.012849
0.012957
0.012860
0.012614
0.012292
0.011967
0.011708
0.011565
0.000463
0.001404
0.002383
0.003417
0.004507
0.005642
0.006792
0.007917
0.008965
0.009885
0.010629
0.011165
0.011478
0.011577
0.011494
0.011278
0.010992
0.010704
0.010474
0.010347
0.000406
0.001230
0.002088
0.002993
0.003949
0.004944
0.005952
0.006939
0.007858
0.008666
0.009321
0.009793
0.010070
0.010160
0.010090
0.009904
0.009656
0.009406
0.009205
0.009094
0.000351
0.001063
0.001805
0.002589
0.003416
0.004276
0.005150
0.006004
0.006801
0.007502
0.008070
0.008482
0.008725
0.008806
0.008748
0.008590
0.008377
0.008162
0.007990
0.007895
0.000302
0.000915
0.001554
0.002230
0.002942
0.003685
0.004438
0.005175
0.005864
0.006470
0.006963
0.007320
0.007533
0.007605
0.007558
0.007424
0.007243
0.007059
0.006911
0.006829
0.000262
0.000795
0.001352
0.001939
0.002560
0.003207
0.003863
0.004507
0.005108
0.005637
0.006069
0.006382
0.006570
0.006636
0.006597
0.006482
0.006326
0.006167
0.006039
0.005968
0.000235
0.000712
0.001210
0.001736
0.002292
0.002872
0.003461
0.004038
0.004578
0.005054
0.005442
0.005726
0.005896
0.005957
0.005924
0.005822
0.005684
0.005542
0.005427
0.005364
0.000220
0.000669
0.001137
0.001631
0.002155
0.002700
0.003254
0.003797
0.004306
0.004754
0.005121
0.005388
0.005549
0.005608
0.005578
0.005483
0.005353
0.005220
0.005113
0.005053


SCALARS Species_2 float 1 
LOOKUP_TABLE default 
0.000270
0.000794
0.001273
0.001680
0.001996
0.002209
0.002316
0.002323
0.002241
0.002087
0.001883
0.001648
0.001402
0.001163
0.000942
0.000750
0.000592
0.000472
0.000392
0.000352
0.000298
0.000876
0.001404
0.001853
0.002201
0.002436
0.002554
0.002560
0.002470
0.002301
0.002076
0.001817
0.001547
0.001283
0.001040
0.000828
0.000655
0.000523
0.000434
0.000390
0.000352
0.001036
0.001660
0.002190
0.002601
0.002877
0.003015
0.003023
0.002915
0.002715
0.002449
0.002144
0.001825
0.001514
0.001228
0.000978
0.000773
0.000618
0.000513
0.000461