# vtk DataFile Version 2.0
generated by CFD-lab course output (written by Tobias Neckel) 
ASCII

DATASET STRUCTURED_GRID
DIMENSIONS  21 21 1 
POINTS 441 float

0.000000 0.000000 0
0.100000 0.000000 0
0.200000 0.000000 0
0.300000 0.000000 0
0.400000 0.000000 0
0.500000 0.000000 0
0.600000 0.000000 0
0.700000 0.000000 0
0.800000 0.000000 0
0.900000 0.000000 0
1.000000 0.000000 0
1.100000 0.000000 0
1.200000 0.000000 0
1.300000 0.000000 0
1.400000 0.000000 0
1.500000 0.000000 0
1.600000 0.000000 0
1.700000 0.000000 0
1.800000 0.000000 0
1.900000 0.000000 0
2.000000 0.000000 0
0.000000 0.100000 0
0.100000 0.100000 0
0.200000 0.100000 0
0.300000 0.100000 0
0.400000 0.100000 0
0.500000 0.100000 0
0.600000 0.100000 0
0.700000 0.100000 0
0.800000 0.100000 0
0.900000 0.100000 0
1.000000 0.100000 0
1.100000 0.100000 0
1.200000 0.100000 0
1.300000 0.100000 0
1.400000 0.100000 0
1.500000 0.100000 0
1.600000 0.100000 0
1.700000 0.100000 0
1.800000 0.100000 0
1.900000 0.100000 0
2.000000 0.100000 0
0.000000 0.200000 0
0.100000 0.200000 0
0.200000 0.200000 0
0.300000 0.200000 0
0.400000 0.200000 0
0.500000 0.200000 0
0.600000 0.200000 0
0.700000 0.200000 0
0.800000 0.200000 0
0.900000 0.200000 0
1.000000 0.200000 0
1.100000 0.200000 0
1.200000 0.200000 0
1.300000 0.200000 0
1.400000 0.200000 0
1.500000 0.200000 0
1.600000 0.200000 0
1.700000 0.200000 0
1.800000 0.200000 0
1.900000 0.200000 0
2.000000 0.200000 0
0.000000 0.300000 0
0.100000 0.300000 0
0.200000 0.300000 0
0.300000 0.300000 0
0.400000 0.300000 0
0.500000 0.300000 0
0.600000 0.300000 0
0.700000 0.300000 0
0.800000 0.300000 0
0.900000 0.300000 0
1.000000 0.300000 0
1.100000 0.300000 0
1.200000 0.300000 0
1.300000 0.300000 0
1.400000 0.300000 0
1.500000 0.300000 0
1.600000 0.300000 0
1.700000 0.300000 0
1.800000 0.300000 0
1.900000 0.300000 0
2.000000 0.300000 0
0.000000 0.400000 0
0.100000 0.400000 0
0.200000 0.400000 0
0.300000 0.400000 0
0.400000 0.400000 0
0.500000 0.400000 0
0.600000 0.400000 0
0.700000 0.400000 0
0.800000 0.400000 0
0.900000 0.400000 0
1.000000 0.400000 0
1.100000 0.400000 0
1.200000 0.400000 0
1.300000 0.400000 0
1.400000 0.400000 0
1.500000 0.400000 0
1.600000 0.400000 0
1.700000 0.400000 0
1.800000 0.400000 0
1.900000 0.400000 0
2.000000 0.400000 0
0.000000 0.500000 0
0.100000 0.500000 0
0.200000 0.500000 0
0.300000 0.500000 0
0.400000 0.500000 0
0.500000 0.500000 0
0.600000 0.500000 0
0.700000 0.500000 0
0.800000 0.500000 0
0.900000 0.500000 0
1.000000 0.500000 0
1.100000 0.500000 0
1.200000 0.500000 0
1.300000 0.500000 0
1.400000 0.500000 0
1.500000 0.500000 0
1.600000 0.500000 0
1.700000 0.500000 0
1.800000 0.500000 0
1.900000 0.500000 0
2.000000 0.500000 0
0.000000 0.600000 0
0.100000 0.600000 0
0.200000 0.600000 0
0.300000 0.600000 0
0.400000 0.600000 0
0.500000 0.600000 0
0.600000 0.600000 0
0.700000 0.600000 0
0.800000 0.600000 0
0.900000 0.600000 0
1.000000 0.600000 0
1.100000 0.600000 0
1.200000 0.600000 0
1.300000 0.600000 0
1.400000 0.600000 0
1.500000 0.600000 0
1.600000 0.600000 0
1.700000 0.600000 0
1.800000 0.600000 0
1.900000 0.600000 0
2.000000 0.600000 0
0.000000 0.700000 0
0.100000 0.700000 0
0.200000 0.700000 0
0.300000 0.700000 0
0.400000 0.700000 0
0.500000 0.700000 0
0.600000 0.700000 0
0.700000 0.700000 0
0.800000 0.700000 0
0.900000 0.700000 0
1.000000 0.700000 0
1.100000 0.700000 0
1.200000 0.700000 0
1.300000 0.700000 0
1.400000 0.700000 0
1.500000 0.700000 0
1.600000 0.700000 0
1.700000 0.700000 0
1.800000 0.700000 0
1.900000 0.700000 0
2.000000 0.700000 0
0.000000 0.800000 0
0.100000 0.800000 0
0.200000 0.800000 0
0.300000 0.800000 0
0.400000 0.800000 0
0.500000 0.800000 0
0.600000 0.800000 0
0.700000 0.800000 0
0.800000 0.800000 0
0.900000 0.800000 0
1.000000 0.800000 0
1.100000 0.800000 0
1.200000 0.800000 0
1.300000 0.800000 0
1.400000 0.800000 0
1.500000 0.800000 0
1.600000 0.800000 0
1.700000 0.800000 0
1.800000 0.800000 0
1.900000 0.800000 0
2.000000 0.800000 0
0.000000 0.900000 0
0.100000 0.900000 0
0.200000 0.900000 0
0.300000 0.900000 0
0.400000 0.900000 0
0.500000 0.900000 0
0.600000 0.900000 0
0.700000 0.900000 0
0.800000 0.900000 0
0.900000 0.900000 0
1.000000 0.900000 0
1.100000 0.900000 0
1.200000 0.900000 0
1.300000 0.900000 0
1.400000 0.900000 0
1.500000 0.900000 0
1.600000 0.900000 0
1.700000 0.900000 0
1.800000 0.900000 0
1.900000 0.900000 0
2.000000 0.900000 0
0.000000 1.000000 0
0.100000 1.000000 0
0.200000 1.000000 0
0.300000 1.000000 0
0.400000 1.000000 0
0.500000 1.000000 0
0.600000 1.000000 0
0.700000 1.000000 0
0.800000 1.000000 0
0.900000 1.000000 0
1.000000 1.000000 0
1.100000 1.000000 0
1.200000 1.000000 0
1.300000 1.000000 0
1.400000 1.000000 0
1.500000 1.000000 0
1.600000 1.000000 0
1.700000 1.000000 0
1.800000 1.000000 0
1.900000 1.000000 0
2.000000 1.000000 0
0.000000 1.100000 0
0.100000 1.100000 0
0.200000 1.100000 0
0.300000 1.100000 0
0.400000 1.100000 0
0.500000 1.100000 0
0.600000 1.100000 0
0.700000 1.100000 0
0.800000 1.100000 0
0.900000 1.100000 0
1.000000 1.100000 0
1.100000 1.100000 0
1.200000 1.100000 0
1.300000 1.100000 0
1.400000 1.100000 0
1.500000 1.100000 0
1.600000 1.100000 0
1.700000 1.100000 0
1.800000 1.100000 0
1.900000 1.100000 0
2.000000 1.100000 0
0.000000 1.200000 0
0.100000 1.200000 0
0.200000 1.200000 0
0.300000 1.200000 0
0.400000 1.200000 0
0.500000 1.200000 0
0.600000 1.200000 0
0.700000 1.200000 0
0.800000 1.200000 0
0.900000 1.200000 0
1.000000 1.200000 0
1.100000 1.200000 0
1.200000 1.200000 0
1.300000 1.200000 0
1.400000 1.200000 0
1.500000 1.200000 0
1.600000 1.200000 0
1.700000 1.200000 0
1.800000 1.200000 0
1.900000 1.200000 0
2.000000 1.200000 0
0.000000 1.300000 0
0.100000 1.300000 0
0.200000 1.300000 0
0.300000 1.300000 0
0.400000 1.300000 0
0.500000 1.300000 0
0.600000 1.300000 0
0.700000 1.300000 0
0.800000 1.300000 0
0.900000 1.300000 0
1.000000 1.300000 0
1.100000 1.300000 0
1.200000 1.300000 0
1.300000 1.300000 0
1.400000 1.300000 0
1.500000 1.300000 0
1.600000 1.300000 0
1.700000 1.300000 0
1.800000 1.300000 0
1.900000 1.300000 0
2.000000 1.300000 0
0.000000 1.400000 0
0.100000 1.400000 0
0.200000 1.400000 0
0.300000 1.400000 0
0.400000 1.400000 0
0.500000 1.400000 0
0.600000 1.400000 0
0.700000 1.400000 0
0.800000 1.400000 0
0.900000 1.400000 0
1.000000 1.400000 0
1.100000 1.400000 0
1.200000 1.400000 0
1.300000 1.400000 0
1.400000 1.400000 0
1.500000 1.400000 0
1.600000 1.400000 0
1.700000 1.400000 0
1.800000 1.400000 0
1.900000 1.400000 0
2.000000 1.400000 0
0.000000 1.500000 0
0.100000 1.500000 0
0.200000 1.500000 0
0.300000 1.500000 0
0.400000 1.500000 0
0.500000 1.500000 0
0.600000 1.500000 0
0.700000 1.500000 0
0.800000 1.500000 0
0.900000 1.500000 0
1.000000 1.500000 0
1.100000 1.500000 0
1.200000 1.500000 0
1.300000 1.500000 0
1.400000 1.500000 0
1.500000 1.500000 0
1.600000 1.500000 0
1.700000 1.500000 0
1.800000 1.500000 0
1.900000 1.500000 0
2.000000 1.500000 0
0.000000 1.600000 0
0.100000 1.600000 0
0.200000 1.600000 0
0.300000 1.600000 0
0.400000 1.600000 0
0.500000 1.600000 0
0.600000 1.600000 0
0.700000 1.600000 0
0.800000 1.600000 0
0.900000 1.600000 0
1.000000 1.600000 0
1.100000 1.600000 0
1.200000 1.600000 0
1.300000 1.600000 0
1.400000 1.600000 0
1.500000 1.600000 0
1.600000 1.600000 0
1.700000 1.600000 0
1.800000 1.600000 0
1.900000 1.600000 0
2.000000 1.600000 0
0.000000 1.700000 0
0.100000 1.700000 0
0.200000 1.700000 0
0.300000 1.700000 0
0.400000 1.700000 0
0.500000 1.700000 0
0.600000 1.700000 0
0.700000 1.700000 0
0.800000 1.700000 0
0.900000 1.700000 0
1.000000 1.700000 0
1.100000 1.700000 0
1.200000 1.700000 0
1.300000 1.700000 0
1.400000 1.700000 0
1.500000 1.700000 0
1.600000 1.700000 0
1.700000 1.700000 0
1.800000 1.700000 0
1.900000 1.700000 0
2.000000 1.700000 0
0.000000 1.800000 0
0.100000 1.800000 0
0.200000 1.800000 0
0.300000 1.800000 0
0.400000 1.800000 0
0.500000 1.800000 0
0.600000 1.800000 0
0.700000 1.800000 0
0.800000 1.800000 0
0.900000 1.800000 0
1.000000 1.800000 0
1.100000 1.800000 0
1.200000 1.800000 0
1.300000 1.800000 0
1.400000 1.800000 0
1.500000 1.800000 0
1.600000 1.800000 0
1.700000 1.800000 0
1.800000 1.800000 0
1.900000 1.800000 0
2.000000 1.800000 0
0.000000 1.900000 0
0.100000 1.900000 0
0.200000 1.900000 0
0.300000 1.900000 0
0.400000 1.900000 0
0.500000 1.900000 0
0.600000 1.900000 0
0.700000 1.900000 0
0.800000 1.900000 0
0.900000 1.900000 0
1.000000 1.900000 0
1.100000 1.900000 0
1.200000 1.900000 0
1.300000 1.900000 0
1.400000 1.900000 0
1.500000 1.900000 0
1.600000 1.900000 0
1.700000 1.900000 0
1.800000 1.900000 0
1.900000 1.900000 0
2.000000 1.900000 0
0.000000 2.000000 0
0.100000 2.000000 0
0.200000 2.000000 0
0.300000 2.000000 0
0.400000 2.000000 0
0.500000 2.000000 0
0.600000 2.000000 0
0.700000 2.000000 0
0.800000 2.000000 0
0.900000 2.000000 0
1.000000 2.000000 0
1.100000 2.000000 0
1.200000 2.000000 0
1.300000 2.000000 0
1.400000 2.000000 0
1.500000 2.000000 0
1.600000 2.000000 0
1.700000 2.000000 0
1.800000 2.000000 0
1.900000 2.000000 0
2.000000 2.000000 0
POINT_DATA 441 

VECTORS velocity float
0.000000 0.000000 0
-0.000013 0.000000 0
-0.000004 0.000000 0
0.000005 0.000000 0
0.000009 0.000000 0
0.000007 0.000000 0
0.000002 0.000000 0
-0.000003 0.000000 0
-0.000005 0.000000 0
-0.000004 0.000000 0
-0.000002 0.000000 0
-0.000000 0.000000 0
0.000001 0.000000 0
0.000001 0.000000 0
0.000001 0.000000 0
0.000000 0.000000 0
-0.000000 0.000000 0
-0.000000 0.000000 0
-0.000000 0.000000 0
-0.000000 0.000000 0
-0.000000 0.000000 0
0.000000 -0.000011 0
0.000007 -0.000017 0
0.000025 -0.000003 0
0.000040 0.000007 0
0.000046 0.000009 0
0.000044 0.000005 0
0.000035 0.000002 0
0.000020 0.000003 0
0.000001 0.000009 0
-0.000020 0.000015 0
-0.000042 0.000020 0
-0.000063 0.000021 0
-0.000081 0.000019 0
-0.000095 0.000014 0
-0.000105 0.000009 0
-0.000111 0.000004 0
-0.000113 0.000001 0
-0.000114 -0.000000 0
-0.000113 -0.000001 0
-0.000112 -0.000001 0
-0.000112 -0.000000 0
0.000000 0.000005 0
0.000019 -0.000019 0
0.000032 -0.000016 0
0.000041 -0.000015 0
0.000045 -0.000012 0
0.000044 -0.000003 0
0.000039 0.000011 0
0.000026 0.000027 0
0.000006 0.000042 0
-0.000019 0.000049 0
-0.000045 0.000050 0
-0.000070 0.000044 0
-0.000091 0.000034 0
-0.000106 0.000023 0
-0.000116 0.000014 0
-0.000121 0.000007 0
-0.000123 0.000002 0
-0.000122 -0.000001 0
-0.000121 -0.000001 0
-0.000121 -0.000001 0
-0.000120 -0.000001 0
0.000000 0.000005 0
0.000020 -0.000038 0
0.000031 -0.000041 0
0.000041 -0.000033 0
0.000050 -0.000016 0
0.000054 0.000008 0
0.000050 0.000034 0
0.000036 0.000055 0
0.000012 0.000070 0
-0.000018 0.000075 0
-0.000049 0.000072 0
-0.000076 0.000062 0
-0.000098 0.000048 0
-0.000112 0.000034 0
-0.000120 0.000021 0
-0.000123 0.000010 0
-0.000123 0.000003 0
-0.000122 -0.000001 0
-0.000120 -0.000002 0
-0.000119 -0.000002 0
-0.000119 -0.000001 0
0.000000 -0.000003 0
0.000017 -0.000062 0
0.000034 -0.000058 0
0.000050 -0.000039 0
0.000063 -0.000012 0
0.000069 0.000018 0
0.000063 0.000047 0
0.000045 0.000073 0
0.000017 0.000092 0
-0.000018 0.000101 0
-0.000053 0.000098 0
-0.000083 0.000086 0
-0.000105 0.000067 0
-0.000118 0.000046 0
-0.000124 0.000027 0
-0.000125 0.000012 0
-0.000123 0.000002 0
-0.000120 -0.000003 0
-0.000117 -0.000004 0
-0.000115 -0.000003 0
-0.000115 -0.000001 0
0.000000 -0.000004 0
0.000019 -0.000080 0
0.000042 -0.000071 0
0.000062 -0.000049 0
0.000076 -0.000020 0
0.000081 0.000014 0
0.000076 0.000053 0
0.000057 0.000092 0
0.000025 0.000123 0
-0.000015 0.000138 0
-0.000056 0.000135 0
-0.000090 0.000116 0
-0.000114 0.000087 0
-0.000126 0.000056 0
-0.000130 0.000030 0
-0.000127 0.000010 0
-0.000122 -0.000002 0
-0.000117 -0.000007 0
-0.000112 -0.000007 0
-0.000109 -0.000004 0
-0.000109 -0.000002 0
0.000000 0.000001 0
0.000024 -0.000098 0
0.000048 -0.000093 0
0.000068 -0.000071 0
0.000084 -0.000037 0
0.000093 0.000008 0
0.000090 0.000064 0
0.000072 0.000120 0
0.000036 0.000165 0
-0.000011 0.000186 0
-0.000060 0.000178 0
-0.000099 0.000147 0
-0.000123 0.000104 0
-0.000133 0.000062 0
-0.000132 0.000027 0
-0.000126 0.000004 0
-0.000117 -0.000009 0
-0.000110 -0.000014 0
-0.000103 -0.000012 0
-0.000100 -0.000006 0
-0.000100 -0.000002 0
0.000000 0.000002 0
0.000024 -0.000122 0
0.000047 -0.000120 0
0.000070 -0.000095 0
0.000089 -0.000053 0
0.000103 0.000006 0
0.000103 0.000078 0
0.000084 0.000153 0
0.000045 0.000211 0
-0.000008 0.000237 0
-0.000063 0.000223 0
-0.000104 0.000178 0
-0.000127 0.000119 0
-0.000133 0.000064 0
-0.000128 0.000022 0
-0.000118 -0.000005 0
-0.000107 -0.000018 0
-0.000097 -0.000021 0
-0.000090 -0.000017 0
-0.000087 -0.000008 0
-0.000086 -0.000002 0
0.000000 -0.000001 0
0.000020 -0.000147 0
0.000043 -0.000145 0
0.000066 -0.000116 0
0.000087 -0.000068 0
0.000102 0.000001 0
0.000104 0.000088 0
0.000087 0.000182 0
0.000049 0.000258 0
-0.000006 0.000291 0
-0.000060 0.000271 0
-0.000100 0.000209 0
-0.000120 0.000132 0
-0.000122 0.000063 0
-0.000113 0.000013 0
-0.000101 -0.000017 0
-0.000089 -0.000029 0
-0.000079 -0.000030 0
-0.000072 -0.000022 0
-0.000068 -0.000010 0
-0.000068 -0.000002 0
0.000000 -0.000001 0
0.000015 -0.000167 0
0.000034 -0.000165 0
0.000053 -0.000136 0
0.000070 -0.000085 0
0.000083 -0.000010 0
0.000087 0.000092 0
0.000075 0.000206 0
0.000043 0.000302 0
-0.000003 0.000344 0
-0.000048 0.000317 0
-0.000081 0.000237 0
-0.000095 0.000141 0
-0.000094 0.000059 0
-0.000085 0.000002 0
-0.000074 -0.000029 0
-0.000063 -0.000040 0
-0.000054 -0.000038 0
-0.000049 -0.000028 0
-0.000046 -0.000011 0
-0.000045 -0.000003 0
0.000000 0.000000 0
0.000009 -0.000179 0
0.000020 -0.000180 0
0.000030 -0.000152 0
0.000040 -0.000101 0
0.000047 -0.000019 0
0.000051 0.000094 0
0.000045 0.000224 0
0.000027 0.000336 0
0.000001 0.000384 0
-0.000025 0.000350 0
-0.000043 0.000256 0
-0.000050 0.000145 0
-0.000049 0.000053 0
-0.000043 -0.000007 0
-0.000036 -0.000039 0
-0.000029 -0.000049 0
-0.000024 -0.000045 0
-0.000020 -0.000031 0
-0.000019 -0.000013 0
-0.000019 -0.000003 0
0.000000 0.000000 0
0.000001 -0.000185 0
0.000001 -0.000187 0
0.000001 -0.000158 0
0.000001 -0.000106 0
0.000001 -0.000022 0
0.000001 0.000095 0
0.000002 0.000231 0
0.000003 0.000348 0
0.000005 0.000398 0
0.000006 0.000362 0
0.000007 0.000262 0
0.000007 0.000146 0
0.000008 0.000051 0
0.000008 -0.000011 0
0.000009 -0.000043 0
0.000009 -0.000052 0
0.000010 -0.000047 0
0.000010 -0.000033 0
0.000011 -0.000013 0
0.000010 -0.000003 0
0.000000 -0.000000 0
-0.000008 -0.000181 0
-0.000018 -0.000182 0
-0.000028 -0.000153 0
-0.000038 -0.000100 0
-0.000046 -0.000019 0
-0.000048 0.000094 0
-0.000041 0.000223 0
-0.000021 0.000333 0
0.000008 0.000381 0
0.000037 0.000348 0
0.000057 0.000254 0
0.000065 0.000144 0
0.000064 0.000052 0
0.000060 -0.000008 0
0.000054 -0.000040 0
0.000048 -0.000050 0
0.000044 -0.000045 0
0.000041 -0.000032 0
0.000040 -0.000013 0
0.000040 -0.000003 0
0.000000 -0.000000 0
-0.000015 -0.000167 0
-0.000033 -0.000166 0
-0.000051 -0.000137 0
-0.000068 -0.000087 0
-0.000081 -0.000012 0
-0.000084 0.000090 0
-0.000071 0.000203 0
-0.000037 0.000298 0
0.000011 0.000340 0
0.000059 0.000313 0
0.000093 0.000234 0
0.000109 0.000138 0
0.000110 0.000056 0
0.000102 -0.000000 0
0.000092 -0.000031 0
0.000083 -0.000043 0
0.000075 -0.000040 0
0.000070 -0.000029 0
0.000068 -0.000012 0
0.000068 -0.000002 0
0.000000 -0.000000 0
-0.000020 -0.000147 0
-0.000043 -0.000145 0
-0.000066 -0.000117 0
-0.000086 -0.000071 0
-0.000100 -0.000004 0
-0.000102 0.000082 0
-0.000083 0.000175 0
-0.000043 0.000252 0
0.000013 0.000286 0
0.000070 0.000266 0
0.000112 0.000205 0
0.000133 0.000128 0
0.000138 0.000059 0
0.000132 0.000009 0
0.000121 -0.000020 0
0.000111 -0.000033 0
0.000102 -0.000033 0
0.000095 -0.000024 0
0.000092 -0.000010 0
0.000092 -0.000002 0
0.000000 0.000000 0
-0.000023 -0.000123 0
-0.000049 -0.000120 0
-0.000073 -0.000095 0
-0.000093 -0.000054 0
-0.000105 0.000003 0
-0.000103 0.000072 0
-0.000082 0.000145 0
-0.000040 0.000202 0
0.000016 0.000228 0
0.000072 0.000215 0
0.000116 0.000170 0
0.000141 0.000112 0
0.000150 0.000058 0
0.000148 0.000016 0
0.000140 -0.000010 0
0.000131 -0.000023 0
0.000122 -0.000025 0
0.000116 -0.000019 0
0.000112 -0.000008 0
0.000112 -0.000002 0
0.000000 -0.000000 0
-0.000024 -0.000099 0
-0.000050 -0.000095 0
-0.000074 -0.000073 0
-0.000092 -0.000039 0
-0.000101 0.000006 0
-0.000096 0.000060 0
-0.000074 0.000113 0
-0.000034 0.000155 0
0.000017 0.000174 0
0.000069 0.000165 0
0.000112 0.000135 0
0.000140 0.000093 0
0.000153 0.000052 0
0.000155 0.000019 0
0.000151 -0.000003 0
0.000144 -0.000015 0
0.000137 -0.000018 0
0.000131 -0.000014 0
0.000128 -0.000006 0
0.000128 -0.000002 0
0.000000 -0.000000 0
-0.000024 -0.000074 0
-0.000050 -0.000070 0
-0.000072 -0.000052 0
-0.000088 -0.000027 0
-0.000094 0.000007 0
-0.000087 0.000045 0
-0.000065 0.000082 0
-0.000028 0.000111 0
0.000018 0.000125 0
0.000065 0.000120 0
0.000106 0.000100 0
0.000135 0.000071 0
0.000152 0.000042 0
0.000158 0.000018 0
0.000158 0.000001 0
0.000153 -0.000009 0
0.000148 -0.000012 0
0.000143 -0.000010 0
0.000140 -0.000005 0
0.000140 -0.000001 0
0.000000 -0.000000 0
-0.000024 -0.000049 0
-0.000050 -0.000046 0
-0.000072 -0.000034 0
-0.000086 -0.000017 0
-0.000090 0.000005 0
-0.000082 0.000030 0
-0.000060 0.000053 0
-0.000025 0.000072 0
0.000018 0.000080 0
0.000062 0.000077 0
0.000101 0.000065 0
0.000131 0.000048 0
0.000150 0.000029 0
0.000159 0.000013 0
0.000162 0.000002 0
0.000159 -0.000005 0
0.000155 -0.000008 0
0.000151 -0.000007 0
0.000148 -0.000003 0
0.000148 -0.000001 0
0.000000 0.000000 0
-0.000024 -0.000023 0
-0.000049 -0.000022 0
-0.000069 -0.000016 0
-0.000083 -0.000008 0
-0.000086 0.000002 0
-0.000077 0.000014 0
-0.000056 0.000025 0
-0.000024 0.000034 0
0.000015 0.000038 0
0.000056 0.000036 0
0.000093 0.000031 0
0.000121 0.000023 0
0.000140 0.000014 0
0.000151 0.000006 0
0.000154 0.000001 0
0.000152 -0.000003 0
0.000149 -0.000004 0
0.000145 -0.000003 0
0.000142 -0.000002 0
0.000141 -0.000000 0
0.000000 0.000000 0
-0.000000 0.000000 0
-0.000000 0.000000 0
-0.000000 0.000000 0
-0.000000 0.000000 0
-0.000000 0.000000 0
-0.000000 0.000000 0
-0.000000 0.000000 0
-0.000000 0.000000 0
-0.000000 0.000000 0
-0.000000 0.000000 0
0.000000 0.000000 0
0.000000 0.000000 0
0.000000 0.000000 0
0.000000 0.000000 0
0.000000 0.000000 0
0.000000 0.000000 0
0.000000 0.000000 0
0.000000 0.000000 0
0.000000 0.000000 0
0.000000 0.000000 0

CELL_DATA 400 
SCALARS pressure float 1 
LOOKUP_TABLE default 
0.242593
0.242645
0.242662
0.242643
0.242608
0.242579
0.242571
0.242582
0.242602
0.242619
0.242628
0.242629
0.242625
0.242619
0.242615
0.242614
0.242615
0.242616
0.242617
0.242618
0.219638
0.219626
0.219604
0.219590
0.219590
0.219603
0.219618
0.219628
0.219629
0.219625
0.219618
0.219613
0.219610
0.219611
0.219613
0.219615
0.219617
0.219618
0.219619
0.219620
0.196618
0.196591
0.196590
0.196609
0.196631
0.196643
0.196640
0.196627
0.196613
0.196604
0.196602
0.196605
0.196610
0.196615
0.196618
0.196619
0.196619
0.196619
0.196619
0.196620
0.173596
0.173599
0.173618
0.173636
0.173641
0.173633
0.173618
0.173605
0.173600
0.173601
0.173607
0.173613
0.173617
0.173619
0.173619
0.173619
0.173618
0.173618
0.173619
0.173620
0.150610
0.150620
0.150626
0.150624
0.150617
0.150610
0.150606
0.150607
0.150610
0.150614
0.150617
0.150618
0.150618
0.150617
0.150617
0.150617
0.150618
0.150618
0.150619
0.150620
0.127627
0.127619
0.127610
0.127606
0.127608
0.127613
0.127619
0.127621
0.127621
0.127618
0.127615
0.127614
0.127614
0.127615
0.127616
0.127617
0.127618
0.127619
0.127620
0.127620
0.104623
0.104610
0.104605
0.104610
0.104619
0.104625
0.104626
0.104623
0.104617
0.104613
0.104611
0.104612
0.104614
0.104616
0.104618
0.104619
0.104619
0.104620
0.104620
0.104621
0.081617
0.081613
0.081615
0.081620
0.081623
0.081623
0.081620
0.081616
0.081614
0.081613
0.081613
0.081615
0.081617
0.081618
0.081619
0.081619
0.081620
0.081620
0.081620
0.081621
0.058620
0.058621
0.058621
0.058619
0.058617
0.058616
0.058616
0.058617
0.058617
0.058618
0.058618
0.058618
0.058618
0.058619
0.058619
0.058620
0.058620
0.058621
0.058621
0.058621
0.035626
0.035623
0.035618
0.035615
0.035615
0.035618
0.035621
0.035622
0.035622
0.035621
0.035620
0.035619
0.035619
0.035619
0.035620
0.035621
0.035621
0.035621
0.035622
0.035622
0.012626
0.012622
0.012618
0.012618
0.012620
0.012623
0.012625
0.012625
0.012624
0.012622
0.012621
0.012621
0.012621
0.012621
0.012622
0.012622
0.012622
0.012622
0.012622
0.012622
-0.010376
-0.010377
-0.010377
-0.010377
-0.010376
-0.010376
-0.010375
-0.010375
-0.010376
-0.010376
-0.010376
-0.010376
-0.010377
-0.010377
-0.010377
-0.010377
-0.010377
-0.010377
-0.010377
-0.010377
-0.033375
-0.033373
-0.033374
-0.033375
-0.033376
-0.033376
-0.033375
-0.033374
-0.033373
-0.033373
-0.033373
-0.033374
-0.033374
-0.033375
-0.033375
-0.033376
-0.033376
-0.033376
-0.033377
-0.033377
-0.056372
-0.056372
-0.056373
-0.056375
-0.056375
-0.056374
-0.056373
-0.056371
-0.056370
-0.056370
-0.056371
-0.056372
-0.056373
-0.056374
-0.056374
-0.056375
-0.056375
-0.056376
-0.056376
-0.056376
-0.079372
-0.079372
-0.079372
-0.079373
-0.079373
-0.079372
-0.079371
-0.079370
-0.079369
-0.079369
-0.079370
-0.079371
-0.079372
-0.079372
-0.079373
-0.079374
-0.079374
-0.079375
-0.079375
-0.079376
-0.102372
-0.102371
-0.102371
-0.102371
-0.102371
-0.102371
-0.102370
-0.102369
-0.102369
-0.102369
-0.102369
-0.102369
-0.102370
-0.102371
-0.102372
-0.102373
-0.102374
-0.102374
-0.102375
-0.102376
-0.125372
-0.125370
-0.125370
-0.125370
-0.125370
-0.125370
-0.125370
-0.125369
-0.125368
-0.125368
-0.125368
-0.125368
-0.125369
-0.125370
-0.125371
-0.125372
-0.125373
-0.125374
-0.125374
-0.125375
-0.148371
-0.148370
-0.148369
-0.148369
-0.148370
-0.148369
-0.148369
-0.148368
-0.148367
-0.148367
-0.148367
-0.148368
-0.148369
-0.148370
-0.148370
-0.148371
-0.148372
-0.148373
-0.148374
-0.148375
-0.171370
-0.171370
-0.171369
-0.171369
-0.171369
-0.171368
-0.171368
-0.171367
-0.171367
-0.171367
-0.171367
-0.171367
-0.171368
-0.171369
-0.171370
-0.171371
-0.171372
-0.171373
-0.171374
-0.171375
-0.194370
-0.194370
-0.194369
-0.194368
-0.194368
-0.194367
-0.194367
-0.194367
-0.194366
-0.194366
-0.194366
-0.194366
-0.194367
-0.194368
-0.194369
-0.194370
-0.194371
-0.194372
-0.194373
-0.194374

SCALARS temperature float 1 
LOOKUP_TABLE default 
0.000017
0.000143
0.000387
0.000731
0.001147
0.001594
0.002025
0.002393
0.002654
0.002783
0.002775
0.002647
0.002429
0.002160
0.001878
0.001613
0.001385
0.001209
0.001090
0.001030
0.000019
0.000157
0.000425
0.000804
0.001263
0.001759
0.002239
0.002647
0.002934
0.003072
0.003054
0.002901
0.002650
0.002345
0.002029
0.001734
0.001484
0.001291
0.001161
0.001096
0.000023
0.000187
0.000505
0.000959
0.001512
0.002113
0.002698
0.003194
0.003539
0.003693
0.003650
0.003440
0.003114
0.002728
0.002336
0.001978
0.001678
0.001450
0.001297
0.001222
0.000029
0.000234
0.000637
0.001214
0.001927
0.002712
0.003480
0.004133
0.004577
0.004755
0.004661
0.004342
0.003875
0.003345
0.002822
0.002356
0.001975
0.001690
0.001502
0.001409
0.000038
0.000304
0.000830
0.001596
0.002556
0.003631
0.004700
0.005611
0.006218
0.006427
0.006232
0.005717
0.005010
0.004241
0.003511
0.002881
0.002379
0.002011
0.001772
0.001655
0.000049
0.000398
0.001095
0.002126
0.003448
0.004962
0.006498
0.007821
0.008687
0.008931
0.008550
0.007698
0.006599
0.005458
0.004418
0.003553
0.002884
0.002405
0.002099
0.001952
0.000064
0.000517
0.001431
0.002812
0.004628
0.006770
0.009004
0.010964
0.012232
0.012511
0.011805
0.010401
0.008691
0.007002
0.005531
0.004352
0.003469
0.002853
0.002467
0.002283
0.000081
0.000651
0.001819
0.003621
0.006062
0.009038
0.012250
0.015141
0.017005
0.017314
0.016081
0.013833
0.011242
0.008810
0.006785
0.005224
0.004092
0.003321
0.002847
0.002622
0.000098
0.000786
0.002214
0.004466
0.007603
0.011564
0.016000
0.020112
0.022778
0.023107
0.021125
0.017737
0.014021
0.010697
0.008046
0.006076
0.004687
0.003762
0.003201
0.002937
0.000112
0.000900
0.002549
0.005193
0.008968
0.013880
0.019560
0.024976
0.028519
0.028858
0.026036
0.021413
0.016538
0.012344
0.009114
0.006782
0.005175
0.004121
0.003488
0.003193
0.000121
0.000967
0.002749
0.005631
0.009799
0.015321
0.021828
0.028144
0.032303
0.032652
0.029242
0.023766
0.018116
0.013363
0.009772
0.007221
0.005482
0.004350
0.003675
0.003360
0.000122
0.000974
0.002768
0.005664
0.009846
0.015378
0.021891
0.028215
0.032391
0.032753
0.029355
0.023888
0.018242
0.013484
0.009882
0.007317
0.005565
0.004423
0.003740
0.003421
0.000115
0.000922
0.002608
0.005298
0.009120
0.014071
0.019782
0.025235
0.028827
0.029206
0.026409
0.021801
0.016926
0.012710
0.009443
0.007070
0.005423
0.004337
0.003682
0.003375
0.000103
0.000826
0.002318
0.004654
0.007885
0.011935
0.016452
0.020646
0.023393
0.023779
0.021823
0.018437
0.014696
0.011320
0.008600
0.006556
0.005100
0.004121
0.003523
0.003239
0.000089
0.000709
0.001973
0.003907
0.006499
0.009630
0.012990
0.016015
0.017992
0.018370
0.017155
0.014882
0.012228
0.009702
0.007568
0.005898
0.004669
0.003822
0.003295
0.003042
0.000074
0.000594
0.001639
0.003202
0.005235
0.007605
0.010060
0.012212
0.013624
0.013982
0.013282
0.011820
0.010002
0.008172
0.006546
0.005219
0.004208
0.003492
0.003038
0.002818
0.000062
0.000497
0.001359
0.002625
0.004228
0.006045
0.007873
0.009446
0.010492
0.010824
0.010436
0.009492
0.008237
0.006905
0.005664
0.004611
0.003782
0.003179
0.002791
0.002600
0.000052
0.000423
0.001151
0.002202
0.003509
0.004959
0.006390
0.007608
0.008431
0.008739
0.008524
0.007883
0.006976
0.005966
0.004988
0.004130
0.003435
0.002920
0.002582
0.002415
0.000046
0.000375
0.001016
0.001932
0.003058
0.004290
0.005492
0.006510
0.007209
0.007499
0.007372
0.006894
0.006180
0.005358
0.004539
0.003802
0.003194
0.002736
0.002433
0.002282
0.000043
0.000351
0.000949
0.001802
0.002842
0.003974
0.005072
0.006001
0.006644
0.006925
0.006834
0.006426
0.005798
0.005061
0.004315
0.003637
0.003071
0.002641
0.002355
0.002213


SCALARS Species_1 float 1 
LOOKUP_TABLE default 
0.000598
0.001789
0.002968
0.004125
0.005251
0.006333
0.007360
0.008318
0.009195
0.009982
0.010669
0.011255
0.011738
0.012125
0.012423
0.012643
0.012798
0.012901
0.012963
0.012992
0.000598
0.001791
0.002971
0.004129
0.005256
0.006339
0.007367
0.008326
0.009204
0.009991
0.010679
0.011266
0.011750
0.012137
0.012436
0.012657
0.012813
0.012917
0.012980
0.013009
0.000600
0.001795
0.002977
0.004138
0.005266
0.006351
0.007380
0.008341
0.009220
0.010009
0.010698
0.011286
0.011771
0.012160
0.012459
0.012682
0.012839
0.012943
0.013006
0.013036
0.000601
0.001798
0.002983
0.004145
0.005276
0.006363
0.007393
0.008355
0.009236
0.010025
0.010716
0.011305
0.011791
0.012181
0.012481
0.012704
0.012862
0.012967
0.013031
0.013060
0.000601
0.001799
0.002985
0.004148
0.005278
0.006365
0.007396
0.008358
0.009239
0.010029
0.010720
0.011308
0.011795
0.012185
0.012486
0.012709
0.012868
0.012973
0.013037
0.013067
0.000600
0.001796
0.002978
0.004139
0.005267
0.006351
0.007379
0.008338
0.009217
0.010005
0.010694
0.011281
0.011767
0.012156
0.012457
0.012680
0.012838
0.012944
0.013008
0.013038
0.000596
0.001785
0.002960
0.004113
0.005234
0.006311
0.007332
0.008285
0.009158
0.009940
0.010625
0.011209
0.011691
0.012078
0.012377
0.012599
0.012757
0.012862
0.012926
0.012956
0.000590
0.001764
0.002926
0.004065
0.005173
0.006238
0.007247
0.008188
0.009051
0.009824
0.010501
0.011078
0.011555
0.011937
0.012233
0.012453
0.012609
0.012713
0.012777
0.012806
0.000579
0.001733
0.002874
0.003994
0.005081
0.006127
0.007118
0.008043
0.008890
0.009649
0.010313
0.010879
0.011348
0.011724
0.012014
0.012231
0.012385
0.012488
0.012551
0.012580
0.000565
0.001691
0.002804
0.003896
0.004957
0.005977
0.006943
0.007845
0.008671
0.009411
0.010059
0.010611
0.011068
0.011435
0.011719
0.011931
0.012081
0.012183
0.012244
0.012273
0.000547
0.001637
0.002716
0.003773
0.004801
0.005788
0.006725
0.007598
0.008397
0.009114
0.009741
0.010276
0.010719
0.011074
0.011350
0.011556
0.011702
0.011800
0.011860
0.011888
0.000526
0.001575
0.002612
0.003629
0.004618
0.005568
0.006468
0.007308
0.008077
0.008766
0.009369
0.009883
0.010310
0.010652
0.010918
0.011116
0.011258
0.011353
0.011411
0.011438
0.000503
0.001506
0.002497
0.003469
0.004414
0.005322
0.006183
0.006986
0.007721
0.008379
0.008956
0.009448
0.009856
0.010184
0.010439
0.010629
0.010765
0.010857
0.010913
0.010939
0.000479
0.001432
0.002376
0.003301
0.004200
0.005064
0.005883
0.006647
0.007346
0.007973
0.008522
0.008991
0.009380
0.009693
0.009936
0.010118
0.010248
0.010336
0.010389
0.010414
0.000454
0.001359
0.002254
0.003132
0.003986
0.004806
0.005583
0.006308
0.006972
0.007568
0.008089
0.008535
0.008905
0.009203
0.009434
0.009608
0.009732
0.009816
0.009867
0.009891
0.000431
0.001290
0.002140
0.002973
0.003783
0.004562
0.005300
0.005988
0.006619
0.007185
0.007681
0.008105
0.008457
0.008741
0.008962
0.009127
0.009246
0.009326
0.009375
0.009398
0.000411
0.001229
0.002038
0.002833
0.003605
0.004347
0.005050
0.005706
0.006308
0.006848
0.007321
0.007726
0.008062
0.008334
0.008545
0.008704
0.008817
0.008894
0.008941
0.008963
0.000394
0.001180
0.001957
0.002719
0.003460
0.004173
0.004848
0.005478
0.006056
0.006575
0.007030
0.007420
0.007744
0.008005
0.008209
0.008361
0.008471
0.008545
0.008591
0.008612
0.000382
0.001145
0.001899
0.002640
0.003359
0.004051
0.004706
0.005319
0.005880
0.006384
0.006826
0.007205
0.007520
0.007774
0.007973
0.008121
0.008228
0.008301
0.008345
0.008366
0.000377
0.001127
0.001870
0.002598
0.003307
0.003988
0.004633
0.005236
0.005789
0.006286
0.006721
0.007094
0.007405
0.007656
0.007851
0.007998
0.008103
0.008175
0.008218
0.008239


SCALARS Species_2 float 1 
LOOKUP_TABLE default 
0.000295
0.000874
0.001420
0.001911
0.002333
0.002674
0.002926
0.003087
0.003161
0.003156
0.003081
0.002952
0.002784
0.002593
0.002395
0.002205
0.002036
0.001899
0.001803
0.001754
0.000304
0.000899
0.001459
0.001964
0.002398
0.002748
0.003007
0.003173
0.003250
0.003245
0.003169
0.003037
0.002864
0.002668
0.002465
0.002270
0.002097
0.001956
0.001858
0.001807
0.000320
0.000947
0.001537
0.002069
0.002526
0.002894
0.003167
0.003342
0.003423
0.003418
0.003338
0.003199
0.003018
0.002812
0.002599
0.002394
0.002211
0.002064
0.001961
0.001907
0.000343
0.001016