# vtk DataFile Version 2.0
generated by CFD-lab course output (written by Tobias Neckel) 
ASCII

DATASET STRUCTURED_GRID
DIMENSIONS  21 21 1 
POINTS 441 float

0.000000 0.000000 0
0.100000 0.000000 0
0.200000 0.000000 0
0.300000 0.000000 0
0.400000 0.000000 0
0.500000 0.000000 0
0.600000 0.000000 0
0.700000 0.000000 0
0.800000 0.000000 0
0.900000 0.000000 0
1.000000 0.000000 0
1.100000 0.000000 0
1.200000 0.000000 0
1.300000 0.000000 0
1.400000 0.000000 0
1.500000 0.000000 0
1.600000 0.000000 0
1.700000 0.000000 0
1.800000 0.000000 0
1.900000 0.000000 0
2.000000 0.000000 0
0.000000 0.100000 0
0.100000 0.100000 0
0.200000 0.100000 0
0.300000 0.100000 0
0.400000 0.100000 0
0.500000 0.100000 0
0.600000 0.100000 0
0.700000 0.100000 0
0.800000 0.100000 0
0.900000 0.100000 0
1.000000 0.100000 0
1.100000 0.100000 0
1.200000 0.100000 0
1.300000 0.100000 0
1.400000 0.100000 0
1.500000 0.100000 0
1.600000 0.100000 0
1.700000 0.100000 0
1.800000 0.100000 0
1.900000 0.100000 0
2.000000 0.100000 0
0.000000 0.200000 0
0.100000 0.200000 0
0.200000 0.200000 0
0.300000 0.200000 0
0.400000 0.200000 0
0.500000 0.200000 0
0.600000 0.200000 0
0.700000 0.200000 0
0.800000 0.200000 0
0.900000 0.200000 0
1.000000 0.200000 0
1.100000 0.200000 0
1.200000 0.200000 0
1.300000 0.200000 0
1.400000 0.200000 0
1.500000 0.200000 0
1.600000 0.200000 0
1.700000 0.200000 0
1.800000 0.200000 0
1.900000 0.200000 0
2.000000 0.200000 0
0.000000 0.300000 0
0.100000 0.300000 0
0.200000 0.300000 0
0.300000 0.300000 0
0.400000 0.300000 0
0.500000 0.300000 0
0.600000 0.300000 0
0.700000 0.300000 0
0.800000 0.300000 0
0.900000 0.300000 0
1.000000 0.300000 0
1.100000 0.300000 0
1.200000 0.300000 0
1.300000 0.300000 0
1.400000 0.300000 0
1.500000 0.300000 0
1.600000 0.300000 0
1.700000 0.300000 0
1.800000 0.300000 0
1.900000 0.300000 0
2.000000 0.300000 0
0.000000 0.400000 0
0.100000 0.400000 0
0.200000 0.400000 0
0.300000 0.400000 0
0.400000 0.400000 0
0.500000 0.400000 0
0.600000 0.400000 0
0.700000 0.400000 0
0.800000 0.400000 0
0.900000 0.400000 0
1.000000 0.400000 0
1.100000 0.400000 0
1.200000 0.400000 0
1.300000 0.400000 0
1.400000 0.400000 0
1.500000 0.400000 0
1.600000 0.400000 0
1.700000 0.400000 0
1.800000 0.400000 0
1.900000 0.400000 0
2.000000 0.400000 0
0.000000 0.500000 0
0.100000 0.500000 0
0.200000 0.500000 0
0.300000 0.500000 0
0.400000 0.500000 0
0.500000 0.500000 0
0.600000 0.500000 0
0.700000 0.500000 0
0.800000 0.500000 0
0.900000 0.500000 0
1.000000 0.500000 0
1.100000 0.500000 0
1.200000 0.500000 0
1.300000 0.500000 0
1.400000 0.500000 0
1.500000 0.500000 0
1.600000 0.500000 0
1.700000 0.500000 0
1.800000 0.500000 0
1.900000 0.500000 0
2.000000 0.500000 0
0.000000 0.600000 0
0.100000 0.600000 0
0.200000 0.600000 0
0.300000 0.600000 0
0.400000 0.600000 0
0.500000 0.600000 0
0.600000 0.600000 0
0.700000 0.600000 0
0.800000 0.600000 0
0.900000 0.600000 0
1.000000 0.600000 0
1.100000 0.600000 0
1.200000 0.600000 0
1.300000 0.600000 0
1.400000 0.600000 0
1.500000 0.600000 0
1.600000 0.600000 0
1.700000 0.600000 0
1.800000 0.600000 0
1.900000 0.600000 0
2.000000 0.600000 0
0.000000 0.700000 0
0.100000 0.700000 0
0.200000 0.700000 0
0.300000 0.700000 0
0.400000 0.700000 0
0.500000 0.700000 0
0.600000 0.700000 0
0.700000 0.700000 0
0.800000 0.700000 0
0.900000 0.700000 0
1.000000 0.700000 0
1.100000 0.700000 0
1.200000 0.700000 0
1.300000 0.700000 0
1.400000 0.700000 0
1.500000 0.700000 0
1.600000 0.700000 0
1.700000 0.700000 0
1.800000 0.700000 0
1.900000 0.700000 0
2.000000 0.700000 0
0.000000 0.800000 0
0.100000 0.800000 0
0.200000 0.800000 0
0.300000 0.800000 0
0.400000 0.800000 0
0.500000 0.800000 0
0.600000 0.800000 0
0.700000 0.800000 0
0.800000 0.800000 0
0.900000 0.800000 0
1.000000 0.800000 0
1.100000 0.800000 0
1.200000 0.800000 0
1.300000 0.800000 0
1.400000 0.800000 0
1.500000 0.800000 0
1.600000 0.800000 0
1.700000 0.800000 0
1.800000 0.800000 0
1.900000 0.800000 0
2.000000 0.800000 0
0.000000 0.900000 0
0.100000 0.900000 0
0.200000 0.900000 0
0.300000 0.900000 0
0.400000 0.900000 0
0.500000 0.900000 0
0.600000 0.900000 0
0.700000 0.900000 0
0.800000 0.900000 0
0.900000 0.900000 0
1.000000 0.900000 0
1.100000 0.900000 0
1.200000 0.900000 0
1.300000 0.900000 0
1.400000 0.900000 0
1.500000 0.900000 0
1.600000 0.900000 0
1.700000 0.900000 0
1.800000 0.900000 0
1.900000 0.900000 0
2.000000 0.900000 0
0.000000 1.000000 0
0.100000 1.000000 0
0.200000 1.000000 0
0.300000 1.000000 0
0.400000 1.000000 0
0.500000 1.000000 0
0.600000 1.000000 0
0.700000 1.000000 0
0.800000 1.000000 0
0.900000 1.000000 0
1.000000 1.000000 0
1.100000 1.000000 0
1.200000 1.000000 0
1.300000 1.000000 0
1.400000 1.000000 0
1.500000 1.000000 0
1.600000 1.000000 0
1.700000 1.000000 0
1.800000 1.000000 0
1.900000 1.000000 0
2.000000 1.000000 0
0.000000 1.100000 0
0.100000 1.100000 0
0.200000 1.100000 0
0.300000 1.100000 0
0.400000 1.100000 0
0.500000 1.100000 0
0.600000 1.100000 0
0.700000 1.100000 0
0.800000 1.100000 0
0.900000 1.100000 0
1.000000 1.100000 0
1.100000 1.100000 0
1.200000 1.100000 0
1.300000 1.100000 0
1.400000 1.100000 0
1.500000 1.100000 0
1.600000 1.100000 0
1.700000 1.100000 0
1.800000 1.100000 0
1.900000 1.100000 0
2.000000 1.100000 0
0.000000 1.200000 0
0.100000 1.200000 0
0.200000 1.200000 0
0.300000 1.200000 0
0.400000 1.200000 0
0.500000 1.200000 0
0.600000 1.200000 0
0.700000 1.200000 0
0.800000 1.200000 0
0.900000 1.200000 0
1.000000 1.200000 0
1.100000 1.200000 0
1.200000 1.200000 0
1.300000 1.200000 0
1.400000 1.200000 0
1.500000 1.200000 0
1.600000 1.200000 0
1.700000 1.200000 0
1.800000 1.200000 0
1.900000 1.200000 0
2.000000 1.200000 0
0.000000 1.300000 0
0.100000 1.300000 0
0.200000 1.300000 0
0.300000 1.300000 0
0.400000 1.300000 0
0.500000 1.300000 0
0.600000 1.300000 0
0.700000 1.300000 0
0.800000 1.300000 0
0.900000 1.300000 0
1.000000 1.300000 0
1.100000 1.300000 0
1.200000 1.300000 0
1.300000 1.300000 0
1.400000 1.300000 0
1.500000 1.300000 0
1.600000 1.300000 0
1.700000 1.300000 0
1.800000 1.300000 0
1.900000 1.300000 0
2.000000 1.300000 0
0.000000 1.400000 0
0.100000 1.400000 0
0.200000 1.400000 0
0.300000 1.400000 0
0.400000 1.400000 0
0.500000 1.400000 0
0.600000 1.400000 0
0.700000 1.400000 0
0.800000 1.400000 0
0.900000 1.400000 0
1.000000 1.400000 0
1.100000 1.400000 0
1.200000 1.400000 0
1.300000 1.400000 0
1.400000 1.400000 0
1.500000 1.400000 0
1.600000 1.400000 0
1.700000 1.400000 0
1.800000 1.400000 0
1.900000 1.400000 0
2.000000 1.400000 0
0.000000 1.500000 0
0.100000 1.500000 0
0.200000 1.500000 0
0.300000 1.500000 0
0.400000 1.500000 0
0.500000 1.500000 0
0.600000 1.500000 0
0.700000 1.500000 0
0.800000 1.500000 0
0.900000 1.500000 0
1.000000 1.500000 0
1.100000 1.500000 0
1.200000 1.500000 0
1.300000 1.500000 0
1.400000 1.500000 0
1.500000 1.500000 0
1.600000 1.500000 0
1.700000 1.500000 0
1.800000 1.500000 0
1.900000 1.500000 0
2.000000 1.500000 0
0.000000 1.600000 0
0.100000 1.600000 0
0.200000 1.600000 0
0.300000 1.600000 0
0.400000 1.600000 0
0.500000 1.600000 0
0.600000 1.600000 0
0.700000 1.600000 0
0.800000 1.600000 0
0.900000 1.600000 0
1.000000 1.600000 0
1.100000 1.600000 0
1.200000 1.600000 0
1.300000 1.600000 0
1.400000 1.600000 0
1.500000 1.600000 0
1.600000 1.600000 0
1.700000 1.600000 0
1.800000 1.600000 0
1.900000 1.600000 0
2.000000 1.600000 0
0.000000 1.700000 0
0.100000 1.700000 0
0.200000 1.700000 0
0.300000 1.700000 0
0.400000 1.700000 0
0.500000 1.700000 0
0.600000 1.700000 0
0.700000 1.700000 0
0.800000 1.700000 0
0.900000 1.700000 0
1.000000 1.700000 0
1.100000 1.700000 0
1.200000 1.700000 0
1.300000 1.700000 0
1.400000 1.700000 0
1.500000 1.700000 0
1.600000 1.700000 0
1.700000 1.700000 0
1.800000 1.700000 0
1.900000 1.700000 0
2.000000 1.700000 0
0.000000 1.800000 0
0.100000 1.800000 0
0.200000 1.800000 0
0.300000 1.800000 0
0.400000 1.800000 0
0.500000 1.800000 0
0.600000 1.800000 0
0.700000 1.800000 0
0.800000 1.800000 0
0.900000 1.800000 0
1.000000 1.800000 0
1.100000 1.800000 0
1.200000 1.800000 0
1.300000 1.800000 0
1.400000 1.800000 0
1.500000 1.800000 0
1.600000 1.800000 0
1.700000 1.800000 0
1.800000 1.800000 0
1.900000 1.800000 0
2.000000 1.800000 0
0.000000 1.900000 0
0.100000 1.900000 0
0.200000 1.900000 0
0.300000 1.900000 0
0.400000 1.900000 0
0.500000 1.900000 0
0.600000 1.900000 0
0.700000 1.900000 0
0.800000 1.900000 0
0.900000 1.900000 0
1.000000 1.900000 0
1.100000 1.900000 0
1.200000 1.900000 0
1.300000 1.900000 0
1.400000 1.900000 0
1.500000 1.900000 0
1.600000 1.900000 0
1.700000 1.900000 0
1.800000 1.900000 0
1.900000 1.900000 0
2.000000 1.900000 0
0.000000 2.000000 0
0.100000 2.000000 0
0.200000 2.000000 0
0.300000 2.000000 0
0.400000 2.000000 0
0.500000 2.000000 0
0.600000 2.000000 0
0.700000 2.000000 0
0.800000 2.000000 0
0.900000 2.000000 0
1.000000 2.000000 0
1.100000 2.000000 0
1.200000 2.000000 0
1.300000 2.000000 0
1.400000 2.000000 0
1.500000 2.000000 0
1.600000 2.000000 0
1.700000 2.000000 0
1.800000 2.000000 0
1.900000 2.000000 0
2.000000 2.000000 0
POINT_DATA 441 

VECTORS velocity float
0.000000 0.000000 0
0.000003 0.000000 0
-0.000008 0.000000 0
-0.000009 0.000000 0
-0.000005 0.000000 0
0.000002 0.000000 0
0.000006 0.000000 0
0.000006 0.000000 0
0.000004 0.000000 0
0.000001 0.000000 0
-0.000002 0.000000 0
-0.000003 0.000000 0
-0.000002 0.000000 0
-0.000001 0.000000 0
-0.000000 0.000000 0
0.000000 0.000000 0
0.000000 0.000000 0
0.000000 0.000000 0
0.000000 0.000000 0
-0.000000 0.000000 0
-0.000000 0.000000 0
0.000000 -0.000004 0
0.000022 -0.000035 0
0.000051 -0.000031 0
0.000078 -0.000015 0
0.000096 0.000002 0
0.000101 0.000015 0
0.000091 0.000022 0
0.000066 0.000026 0
0.000031 0.000029 0
-0.000011 0.000031 0
-0.000054 0.000033 0
-0.000095 0.000032 0
-0.000130 0.000028 0
-0.000158 0.000023 0
-0.000177 0.000016 0
-0.000189 0.000009 0
-0.000195 0.000004 0
-0.000197 0.000001 0
-0.000197 -0.000001 0
-0.000196 -0.000001 0
-0.000195 -0.000000 0
0.000000 -0.000009 0
0.000028 -0.000058 0
0.000064 -0.000048 0
0.000090 -0.000030 0
0.000105 -0.000012 0
0.000106 0.000007 0
0.000094 0.000028 0
0.000068 0.000050 0
0.000031 0.000069 0
-0.000015 0.000082 0
-0.000064 0.000085 0
-0.000111 0.000079 0
-0.000150 0.000066 0
-0.000181 0.000049 0
-0.000201 0.000032 0
-0.000214 0.000018 0
-0.000219 0.000007 0
-0.000220 0.000001 0
-0.000220 -0.000002 0
-0.000218 -0.000001 0
-0.000218 -0.000001 0
0.000000 0.000002 0
0.000035 -0.000082 0
0.000068 -0.000080 0
0.000093 -0.000062 0
0.000108 -0.000033 0
0.000112 0.000005 0
0.000102 0.000048 0
0.000077 0.000089 0
0.000036 0.000120 0
-0.000014 0.000137 0
-0.000069 0.000137 0
-0.000119 0.000122 0
-0.000160 0.000099 0
-0.000190 0.000072 0
-0.000208 0.000046 0
-0.000217 0.000025 0
-0.000220 0.000010 0
-0.000219 0.000001 0
-0.000217 -0.000003 0
-0.000216 -0.000002 0
-0.000215 -0.000001 0
0.000000 0.000005 0
0.000035 -0.000119 0
0.000070 -0.000120 0
0.000100 -0.000090 0
0.000121 -0.000044 0
0.000130 0.000013 0
0.000121 0.000074 0
0.000092 0.000130 0
0.000045 0.000171 0
-0.000014 0.000191 0
-0.000076 0.000188 0
-0.000131 0.000166 0
-0.000173 0.000132 0
-0.000200 0.000094 0
-0.000215 0.000059 0
-0.000220 0.000030 0
-0.000219 0.000010 0
-0.000215 -0.000001 0
-0.000211 -0.000005 0
-0.000208 -0.000003 0
-0.000208 -0.000001 0
0.000000 -0.000000 0
0.000034 -0.000159 0
0.000076 -0.000156 0
0.000113 -0.000114 0
0.000140 -0.000055 0
0.000151 0.000017 0
0.000142 0.000095 0
0.000109 0.000168 0
0.000055 0.000224 0
-0.000013 0.000252 0
-0.000083 0.000248 0
-0.000143 0.000216 0
-0.000186 0.000167 0
-0.000211 0.000115 0
-0.000221 0.000067 0
-0.000221 0.000030 0
-0.000215 0.000006 0
-0.000207 -0.000007 0
-0.000201 -0.000009 0
-0.000197 -0.000005 0
-0.000197 -0.000002 0
0.000000 -0.000003 0
0.000036 -0.000197 0
0.000083 -0.000193 0
0.000123 -0.000146 0
0.000154 -0.000077 0
0.000169 0.000011 0
0.000162 0.000111 0
0.000128 0.000210 0
0.000068 0.000288 0
-0.000010 0.000327 0
-0.000089 0.000319 0
-0.000155 0.000271 0
-0.000198 0.000202 0
-0.000219 0.000130 0
-0.000223 0.000069 0
-0.000216 0.000024 0
-0.000205 -0.000003 0
-0.000194 -0.000015 0
-0.000185 -0.000015 0
-0.000180 -0.000007 0
-0.000179 -0.000002 0
0.000000 0.000000 0
0.000038 -0.000237 0
0.000083 -0.000237 0
0.000125 -0.000186 0
0.000159 -0.000106 0
0.000178 0.000002 0
0.000176 0.000130 0
0.000143 0.000260 0
0.000080 0.000364 0
-0.000006 0.000413 0
-0.000093 0.000396 0
-0.000162 0.000327 0
-0.000203 0.000232 0
-0.000218 0.000138 0
-0.000214 0.000063 0
-0.000202 0.000012 0
-0.000186 -0.000017 0
-0.000172 -0.000027 0
-0.000161 -0.000023 0
-0.000155 -0.000010 0
-0.000155 -0.000002 0
0.000000 0.000002 0
0.000034 -0.000278 0
0.000075 -0.000283 0
0.000115 -0.000227 0
0.000149 -0.000135 0
0.000172 -0.000008 0
0.000174 0.000148 0
0.000146 0.000311 0
0.000083 0.000441 0
-0.000003 0.000501 0
-0.000089 0.000475 0
-0.000155 0.000380 0
-0.000190 0.000256 0
-0.000198 0.000141 0
-0.000189 0.000052 0
-0.000172 -0.000004 0
-0.000155 -0.000033 0
-0.000139 -0.000040 0
-0.000129 -0.000032 0
-0.000123 -0.000013 0
-0.000123 -0.000002 0
0.000000 -0.000000 0
0.000025 -0.000313 0
0.000058 -0.000320 0
0.000091 -0.000261 0
0.000120 -0.000162 0
0.000141 -0.000020 0
0.000145 0.000159 0
0.000124 0.000353 0
0.000073 0.000512 0
0.000001 0.000584 0
-0.000072 0.000547 0
-0.000125 0.000426 0
-0.000150 0.000274 0
-0.000152 0.000138 0
-0.000141 0.000038 0
-0.000125 -0.000022 0
-0.000109 -0.000050 0
-0.000096 -0.000053 0
-0.000087 -0.000040 0
-0.000082 -0.000016 0
-0.000082 -0.000002 0
0.000000 -0.000001 0
0.000014 -0.000337 0
0.000033 -0.000346 0
0.000052 -0.000286 0
0.000069 -0.000183 0
0.000082 -0.000033 0
0.000086 0.000164 0
0.000075 0.000381 0
0.000046 0.000563 0
0.000004 0.000646 0
-0.000038 0.000600 0
-0.000068 0.000458 0
-0.000080 0.000284 0
-0.000080 0.000132 0
-0.000072 0.000026 0
-0.000061 -0.000036 0
-0.000051 -0.000062 0
-0.000043 -0.000063 0
-0.000037 -0.000046 0
-0.000034 -0.000018 0
-0.000034 -0.000003 0
0.000000 -0.000000 0
0.000001 -0.000345 0
0.000002 -0.000356 0
0.000003 -0.000297 0
0.000004 -0.000193 0
0.000005 -0.000039 0
0.000006 0.000164 0
0.000007 0.000391 0
0.000008 0.000583 0
0.000008 0.000669 0
0.000008 0.000620 0
0.000008 0.000469 0
0.000009 0.000287 0
0.000010 0.000129 0
0.000012 0.000020 0
0.000013 -0.000043 0
0.000015 -0.000068 0
0.000016 -0.000067 0
0.000017 -0.000048 0
0.000017 -0.000019 0
0.000017 -0.000003 0
0.000000 0.000000 0
-0.000013 -0.000338 0
-0.000030 -0.000348 0
-0.000046 -0.000289 0
-0.000061 -0.000186 0
-0.000073 -0.000036 0
-0.000075 0.000162 0
-0.000062 0.000380 0
-0.000032 0.000563 0
0.000011 0.000646 0
0.000054 0.000600 0
0.000085 0.000457 0
0.000099 0.000282 0
0.000101 0.000130 0
0.000096 0.000023 0
0.000089 -0.000039 0
0.000081 -0.000065 0
0.000076 -0.000065 0
0.000072 -0.000047 0
0.000070 -0.000019 0
0.000070 -0.000003 0
0.000000 -0.000000 0
-0.000025 -0.000316 0
-0.000056 -0.000323 0
-0.000087 -0.000264 0
-0.000115 -0.000166 0
-0.000134 -0.000025 0
-0.000137 0.000154 0
-0.000114 0.000348 0
-0.000061 0.000510 0
0.000013 0.000583 0
0.000087 0.000546 0
0.000143 0.000423 0
0.000170 0.000270 0
0.000176 0.000132 0
0.000168 0.000032 0
0.000155 -0.000028 0
0.000142 -0.000055 0
0.000131 -0.000058 0
0.000124 -0.000043 0
0.000120 -0.000017 0
0.000120 -0.000002 0
0.000000 -0.000001 0
-0.000034 -0.000282 0
-0.000075 -0.000286 0
-0.000115 -0.000229 0
-0.000149 -0.000139 0
-0.000171 -0.000013 0
-0.000171 0.000141 0
-0.000140 0.000303 0
-0.000075 0.000436 0
0.000014 0.000497 0
0.000105 0.000470 0
0.000174 0.000374 0
0.000213 0.000249 0
0.000225 0.000132 0
0.000219 0.000044 0
0.000206 -0.000013 0
0.000191 -0.000041 0
0.000178 -0.000047 0
0.000169 -0.000036 0
0.000164 -0.000015 0
0.000164 -0.000002 0
0.000000 -0.000000 0
-0.000039 -0.000241 0
-0.000087 -0.000241 0
-0.000131 -0.000190 0
-0.000166 -0.000110 0
-0.000186 -0.000003 0
-0.000182 0.000123 0
-0.000146 0.000252 0
-0.000077 0.000355 0
0.000014 0.000404 0
0.000108 0.000386 0
0.000183 0.000316 0
0.000229 0.000220 0
0.000249 0.000126 0
0.000250 0.000051 0
0.000241 0.000000 0
0.000229 -0.000027 0
0.000216 -0.000036 0
0.000207 -0.000029 0
0.000202 -0.000012 0
0.000202 -0.000002 0
0.000000 -0.000000 0
-0.000042 -0.000196 0
-0.000093 -0.000194 0
-0.000138 -0.000150 0
-0.000171 -0.000084 0
-0.000187 0.000003 0
-0.000179 0.000101 0
-0.000141 0.000199 0
-0.000073 0.000275 0
0.000014 0.000312 0
0.000103 0.000302 0
0.000178 0.000253 0
0.000230 0.000183 0
0.000258 0.000111 0
0.000267 0.000051 0
0.000264 0.000009 0
0.000255 -0.000016 0
0.000245 -0.000025 0
0.000237 -0.000022 0
0.000232 -0.000009 0
0.000232 -0.000002 0
0.000000 -0.000000 0
-0.000045 -0.000149 0
-0.000097 -0.000146 0
-0.000142 -0.000111 0
-0.000173 -0.000060 0
-0.000186 0.000005 0
-0.000174 0.000077 0
-0.000135 0.000146 0
-0.000070 0.000200 0
0.000011 0.000227 0
0.000096 0.000221 0
0.000170 0.000189 0
0.000225 0.000140 0
0.000259 0.000089 0
0.000275 0.000045 0
0.000279 0.000011 0
0.000275 -0.000009 0
0.000267 -0.000017 0
0.000261 -0.000016 0
0.000256 -0.000007 0
0.000256 -0.000001 0
0.000000 -0.000000 0
-0.000047 -0.000099 0
-0.000102 -0.000097 0
-0.000147 -0.000073 0
-0.000178 -0.000039 0
-0.000189 0.000004 0
-0.000175 0.000050 0
-0.000135 0.000095 0
-0.000072 0.000129 0
0.000006 0.000146 0
0.000088 0.000143 0
0.000162 0.000124 0
0.000219 0.000094 0
0.000258 0.000061 0
0.000280 0.000032 0
0.000288 0.000009 0
0.000287 -0.000005 0
0.000282 -0.000011 0
0.000276 -0.000011 0
0.000271 -0.000005 0
0.000271 -0.000001 0
0.000000 -0.000000 0
-0.000046 -0.000047 0
-0.000099 -0.000046 0
-0.000143 -0.000035 0
-0.000173 -0.000018 0
-0.000182 0.000001 0
-0.000169 0.000023 0
-0.000132 0.000043 0
-0.000074 0.000059 0
-0.000003 0.000067 0
0.000072 0.000066 0
0.000140 0.000057 0
0.000196 0.000044 0
0.000234 0.000029 0
0.000256 0.000015 0
0.000266 0.000004 0
0.000266 -0.000003 0
0.000261 -0.000006 0
0.000255 -0.000005 0
0.000250 -0.000002 0
0.000250 -0.000000 0
0.000000 0.000000 0
0.000000 0.000000 0
-0.000000 0.000000 0
-0.000000 0.000000 0
-0.000000 0.000000 0
-0.000000 0.000000 0
-0.000000 0.000000 0
-0.000000 0.000000 0
-0.000000 0.000000 0
-0.000000 0.000000 0
-0.000000 0.000000 0
0.000000 0.000000 0
0.000000 0.000000 0
0.000000 0.000000 0
0.000000 0.000000 0
0.000000 0.000000 0
0.000000 0.000000 0
0.000000 0.000000 0
0.000000 0.000000 0
0.000000 0.000000 0
0.000000 0.000000 0

CELL_DATA 400 
SCALARS pressure float 1 
LOOKUP_TABLE default 
0.242584
0.242574
0.242604
0.242641
0.242659
0.242652
0.242628
0.242602
0.242587
0.242585
0.242592
0.242603
0.242611
0.242616
0.242616
0.242615
0.242614
0.242614
0.242614
0.242615
0.219601
0.219627
0.219637
0.219628
0.219610
0.219595
0.219589
0.219594
0.219603
0.219612
0.219617
0.219617
0.219615
0.219613
0.219611
0.219611
0.219612
0.219613
0.219614
0.219614
0.196639
0.196631
0.196606
0.196586
0.196582
0.196593
0.196610
0.196623
0.196628
0.196625
0.196618
0.196611
0.196607
0.196607
0.196608
0.196611
0.196613
0.196614
0.196615
0.196615
0.173632
0.173607
0.173590
0.173591
0.173605
0.173621
0.173630
0.173629
0.173622
0.173613
0.173607
0.173605
0.173606
0.173609
0.173612
0.173614
0.173615
0.173615
0.173616
0.173616
0.150611
0.150606
0.150610
0.150617
0.150621
0.150621
0.150617
0.150612
0.150608
0.150607
0.150608
0.150610
0.150612
0.150613
0.150614
0.150615
0.150615
0.150615
0.150616
0.150617
0.127612
0.127622
0.127624
0.127618
0.127610
0.127605
0.127604
0.127607
0.127611
0.127614
0.127615
0.127615
0.127615
0.127614
0.127614
0.127614
0.127615
0.127616
0.127616
0.127617
0.104624
0.104625
0.104618
0.104608
0.104603
0.104604
0.104610
0.104615
0.104618
0.104619
0.104617
0.104615
0.104613
0.104613
0.104614
0.104615
0.104616
0.104617
0.104617
0.104618
0.081623
0.081619
0.081613
0.081610
0.081611
0.081614
0.081617
0.081618
0.081618
0.081616
0.081615
0.081614
0.081614
0.081615
0.081616
0.081617
0.081617
0.081618
0.081618
0.081619
0.058617
0.058618
0.058619
0.058620
0.058619
0.058618
0.058616
0.058615
0.058615
0.058615
0.058616
0.058616
0.058617
0.058617
0.058618
0.058618
0.058619
0.058619
0.058619
0.058620
0.035617
0.035623
0.035625
0.035623
0.035619
0.035615
0.035614
0.035615
0.035617
0.035618
0.035620
0.035620
0.035620
0.035619
0.035619
0.035619
0.035620
0.035620
0.035620
0.035621
0.012622
0.012625
0.012624
0.012621
0.012619
0.012617
0.012618
0.012620
0.012621
0.012622
0.012622
0.012622
0.012621
0.012621
0.012621
0.012621
0.012621
0.012621
0.012621
0.012622
-0.010376
-0.010376
-0.010376
-0.010377
-0.010377
-0.010377
-0.010377
-0.010376
-0.010376
-0.010376
-0.010376
-0.010376
-0.010376
-0.010377
-0.010377
-0.010377
-0.010377
-0.010377
-0.010377
-0.010377
-0.033377
-0.033376
-0.033374
-0.033373
-0.033373
-0.033374
-0.033374
-0.033375
-0.033374
-0.033374
-0.033374
-0.033373
-0.033374
-0.033374
-0.033375
-0.033375
-0.033376
-0.033376
-0.033376
-0.033376
-0.056375
-0.056373
-0.056371
-0.056371
-0.056371
-0.056372
-0.056373
-0.056373
-0.056372
-0.056371
-0.056371
-0.056371
-0.056371
-0.056372
-0.056373
-0.056374
-0.056374
-0.056375
-0.056375
-0.056375
-0.079373
-0.079372
-0.079371
-0.079370
-0.079370
-0.079371
-0.079370
-0.079370
-0.079369
-0.079369
-0.079369
-0.079369
-0.079370
-0.079371
-0.079371
-0.079372
-0.079373
-0.079373
-0.079374
-0.079374
-0.102371
-0.102371
-0.102370
-0.102369
-0.102369
-0.102368
-0.102368
-0.102368
-0.102367
-0.102367
-0.102367
-0.102368
-0.102368
-0.102369
-0.102370
-0.102371
-0.102371
-0.102372
-0.102373
-0.102373
-0.125371
-0.125371
-0.125369
-0.125368
-0.125367
-0.125367
-0.125366
-0.125366
-0.125366
-0.125366
-0.125366
-0.125366
-0.125367
-0.125368
-0.125368
-0.125369
-0.125370
-0.125371
-0.125372
-0.125373
-0.148370
-0.148370
-0.148368
-0.148367
-0.148366
-0.148366
-0.148366
-0.148365
-0.148365
-0.148365
-0.148365
-0.148365
-0.148366
-0.148366
-0.148367
-0.148368
-0.148369
-0.148370
-0.148371
-0.148372
-0.171369
-0.171369
-0.171368
-0.171367
-0.171366
-0.171365
-0.171364
-0.171364
-0.171364
-0.171363
-0.171364
-0.171364
-0.171364
-0.171365
-0.171366
-0.171367
-0.171368
-0.171369
-0.171370
-0.171371
-0.194368
-0.194369
-0.194368
-0.194367
-0.194365
-0.194364
-0.194363
-0.194363
-0.194362
-0.194362
-0.194362
-0.194362
-0.194363
-0.194364
-0.194365
-0.194366
-0.194367
-0.194368
-0.194369
-0.194370

SCALARS temperature float 1 
LOOKUP_TABLE default 
0.000033
0.000254
0.000679
0.001277
0.001999
0.002783
0.003558
0.004251
0.004801
0.005165
0.005329
0.005308
0.005141
0.004874
0.004557
0.004235
0.003944
0.003707
0.003542
0.003459
0.000035
0.000270
0.000722
0.001359
0.002130
0.002968
0.003797
0.004536
0.005118
0.005494
0.005651
0.005608
0.005408
0.005105
0.004754
0.004403
0.004087
0.003834
0.003658
0.003569
0.000040
0.000304
0.000813
0.001533
0.002407
0.003362
0.004306
0.005144
0.005792
0.006192
0.006330
0.006234
0.005961
0.005578
0.005152
0.004735
0.004369
0.004078
0.003879
0.003778
0.000047
0.000358
0.000960
0.001817
0.002864
0.004016
0.005158
0.006166
0.006927
0.007362
0.007456
0.007257
0.006848
0.006322
0.005765
0.005239
0.004789
0.004439
0.004201
0.004083
0.000058
0.000436
0.001174
0.002233
0.003543
0.005002
0.006460
0.007741
0.008680
0.009159
0.009163
0.008778
0.008135
0.007375
0.006611
0.005919
0.005345
0.004909
0.004618
0.004475
0.000073
0.000540
0.001461
0.002802
0.004491
0.006403
0.008342
0.010049
0.011260
0.011789
0.011622
0.010914
0.009892
0.008767
0.007696
0.006768
0.006024
0.005472
0.005112
0.004936
0.000091
0.000669
0.001821
0.003529
0.005730
0.008280
0.010924
0.013272
0.014894
0.015474
0.015001
0.013767
0.012155
0.010495
0.008997
0.007756
0.006793
0.006100
0.005656
0.005441
0.000111
0.000815
0.002233
0.004380
0.007222
0.010612
0.014230
0.017497
0.019713
0.020339
0.019371
0.017333
0.014872
0.012486
0.010441
0.008817
0.007601
0.006748
0.006211
0.005953
0.000131
0.000960
0.002651
0.005262
0.008818
0.013203
0.018030
0.022491
0.025492
0.026153
0.024481
0.021360
0.017813
0.014554
0.011886
0.009848
0.008370
0.007357
0.006729
0.006430
0.000148
0.001081
0.003004
0.006025
0.010239
0.015595
0.021664
0.027404
0.031260
0.031946
0.029484
0.025177
0.020498
0.016374
0.013123
0.010715
0.009012
0.007866
0.007162
0.006829
0.000158
0.001153
0.003220
0.006494
0.011127
0.017133
0.024067
0.030732
0.035214
0.035923
0.032891
0.027728
0.022257
0.017555
0.013926
0.011289
0.009447
0.008217
0.007466
0.007111
0.000160
0.001166
0.003255
0.006562
0.011237
0.017299
0.024309
0.031071
0.035643
0.036372
0.033304
0.028083
0.022562
0.017819
0.014156
0.011492
0.009628
0.008382
0.007620
0.007258
0.000154
0.001120
0.003110
0.006226
0.010564
0.016078
0.022350
0.028340
0.032420
0.033175
0.030633
0.026185
0.021377
0.017144
0.013800
0.011316
0.009550
0.008355
0.007619
0.007266
0.000142
0.001026
0.002826
0.005595
0.009349
0.013973
0.019086
0.023868
0.027148
0.027915
0.026175
0.022902
0.019198
0.015792
0.012990
0.010832
0.009255
0.008165
0.007483
0.007153
0.000125
0.000907
0.002479
0.004844
0.007955
0.011655
0.015610
0.019220
0.021720
0.022480
0.021486
0.019329
0.016713
0.014160
0.011949
0.010170
0.008821
0.007864
0.007253
0.006954
0.000108
0.000789
0.002139
0.004126
0.006668
0.009595
0.012625
0.015334
0.017243
0.017978
0.017519
0.016195
0.014430
0.012585
0.010890
0.009461
0.008335
0.007512
0.006975
0.006709
0.000094
0.000687
0.001850
0.003533
0.005634
0.007994
0.010377
0.012480
0.013996
0.014700
0.014569
0.013782
0.012597
0.011262
0.009961
0.008811
0.007872
0.007165
0.006696
0.006460
0.000083
0.000610
0.001634
0.003096
0.004893
0.006874
0.008842
0.010570
0.011846
0.012521
0.012570
0.012099
0.011273
0.010269
0.009238
0.008288
0.007488
0.006871
0.006455
0.006243
0.000076
0.000559
0.001494
0.002816
0.004425
0.006180
0.007909
0.009424
0.010564
0.011217
0.011357
0.011055
0.010430
0.009619
0.008752
0.007928
0.007216
0.006659
0.006279
0.006083
0.000072
0.000533
0.001423
0.002678
0.004198
0.005849
0.007469
0.008890
0.009969
0.010610
0.010787
0.010557
0.010020
0.009296
0.008504
0.007740
0.007073
0.006546
0.006185
0.005999


SCALARS Species_1 float 1 
LOOKUP_TABLE default 
0.000518
0.001549
0.002566
0.003561
0.004526
0.005452
0.006332
0.007161
0.007932
0.008641
0.009285
0.009860
0.010367
0.010806
0.011176
0.011481
0.011721
0.011899
0.012017
0.012075
0.000517
0.001545
0.002560
0.003553
0.004515
0.005438
0.006317
0.007144
0.007913
0.008621
0.009263
0.009838
0.010343
0.010781
0.011151
0.011455
0.011695
0.011872
0.011990
0.012048
0.000514
0.001539
0.002549
0.003537
0.004495
0.005415
0.006289
0.007113
0.007879
0.008584
0.009224
0.009796
0.010300
0.010735
0.011104
0.011406
0.011645
0.011823
0.011940
0.011998
0.000511
0.001529
0.002532
0.003514
0.004466
0.005380
0.006249
0.007068
0.007829
0.008530
0.009166
0.009734
0.010235
0.010668
0.011034
0.011335
0.011573
0.011749
0.011865
0.011923
0.000507
0.001516
0.002511
0.003484
0.004428
0.005334
0.006196
0.007007
0.007763
0.008458
0.009088
0.009652
0.010149
0.010578
0.010941
0.011239
0.011475
0.011650
0.011765
0.011823
0.000501
0.001499
0.002483
0.003446
0.004379
0.005276
0.006129
0.006932
0.007679
0.008367
0.008990
0.009548
0.010039
0.010464
0.010823
0.011118
0.011352
0.011525
0.011639
0.011696
0.000495
0.001479
0.002451
0.003401
0.004321
0.005206
0.006048
0.006840
0.007578
0.008256
0.008872
0.009422
0.009907
0.010326
0.010680
0.010972
0.011202
0.011373
0.011485
0.011542
0.000487
0.001456
0.002412
0.003347
0.004254
0.005125
0.005953
0.006733
0.007459
0.008127
0.008733
0.009274
0.009751
0.010163
0.010512
0.010799
0.011026
0.011194
0.011305
0.011361
0.000478
0.001430
0.002369
0.003287
0.004177
0.005032
0.005846
0.006611
0.007324
0.007980
0.008574
0.009106
0.009574
0.009978
0.010321
0.010603
0.010825
0.010991
0.011100
0.011154
0.000469
0.001401
0.002321
0.003221
0.004093
0.004931
0.005727
0.006477
0.007175
0.007816
0.008398
0.008919
0.009377
0.009773
0.010109
0.010385
0.010603
0.010765
0.010873
0.010926
0.000458
0.001370
0.002270
0.003150
0.004002
0.004821
0.005600
0.006332
0.007014
0.007640
0.008209
0.008717
0.009165
0.009552
0.009880
0.010150
0.010364
0.010523
0.010628
0.010680
0.000447
0.001338
0.002216
0.003075
0.003908
0.004707
0.005466
0.006181
0.006845
0.007456
0.008010
0.008506
0.008942
0.009321
0.009641
0.009905
0.010114
0.010269
0.010372
0.010423
0.000436
0.001305
0.002162
0.002999
0.003811
0.004590
0.005330
0.006026
0.006673
0.007268
0.007808
0.008291
0.008717
0.009086
0.009398
0.009656
0.009860
0.010011
0.010112
0.010162
0.000425
0.001272
0.002108
0.002925
0.003716
0.004475
0.005196
0.005874
0.006504
0.007084
0.007609
0.008080
0.008495
0.008855
0.009160
0.009411
0.009610
0.009758
0.009856
0.009905
0.000415
0.001242
0.002057
0.002853
0.003625
0.004365
0.005068
0.005729
0.006344
0.006909
0.007421
0.007880
0.008286
0.008637
0.008934
0.009180
0.009374
0.009519
0.009615
0.009663
0.000406
0.001213
0.002010
0.002789
0.003542
0.004265
0.004952
0.005598
0.006198
0.006750
0.007251
0.007700
0.008096
0.008439
0.008730
0.008971
0.009161
0.009302
0.009396
0.009443
0.000398
0.001189
0.001970
0.002733
0.003472
0.004180
0.004853
0.005485
0.006073
0.006614
0.007105
0.007545
0.007933
0.008270
0.008556
0.008791
0.008978
0.009117
0.009209
0.009255
0.000391
0.001170
0.001938
0.002689
0.003415
0.004112
0.004774
0.005396
0.005975
0.006507
0.006990
0.007423
0.007805
0.008137
0.008418
0.008650
0.008834
0.008971
0.009061
0.009106
0.000387
0.001157
0.001916
0.002658
0.003377
0.004065
0.004720
0.005334
0.005906
0.006433
0.006910
0.007339
0.007717
0.008044
0.008323
0.008552
0.008734
0.008869
0.008959
0.009004
0.000385
0.001150
0.001905
0.002643
0.003357
0.004041
0.004692
0.005303
0.005872
0.006395
0.006870
0.007295
0.007671
0.007997
0.008274
0.008502
0.008683
0.008818
0.008907
0.008951


SCALARS Species_2 float 1 
LOOKUP_TABLE default 
0.000240
0.000714
0.001169
0.001593
0.001979
0.002317
0.002603
0.002833
0.003008
0.003129
0.003202
0.003232
0.003227
0.003196
0.003148
0.003092
0.003036
0.002987
0.002952
0.002933
0.000243
0.000722
0.001182
0.001612
0.002002
0.002344
0.002633
0.002867
0.003044
0.003167
0.003241
0.003272
0.003267
0.003236
0.003188
0.003132
0.003075
0.003026
0.002990
0.002972
0.000249
0.000739
0.001210
0.001650
0.002049
0.002399
0.002695
0.002934
0.003116
0.003242
0.003318
0.003350
0.003345
0.003314
0.003265
0.003208
0.003151
0.003101
0.003064
0.003045
0.000257
0.000764
0.001250