# vtk DataFile Version 2.0
generated by CFD-lab course output (written by Tobias Neckel) 
ASCII

DATASET STRUCTURED_GRID
DIMENSIONS  21 21 1 
POINTS 441 float

0.000000 0.000000 0
0.100000 0.000000 0
0.200000 0.000000 0
0.300000 0.000000 0
0.400000 0.000000 0
0.500000 0.000000 0
0.600000 0.000000 0
0.700000 0.000000 0
0.800000 0.000000 0
0.900000 0.000000 0
1.000000 0.000000 0
1.100000 0.000000 0
1.200000 0.000000 0
1.300000 0.000000 0
1.400000 0.000000 0
1.500000 0.000000 0
1.600000 0.000000 0
1.700000 0.000000 0
1.800000 0.000000 0
1.900000 0.000000 0
2.000000 0.000000 0
0.000000 0.100000 0
0.100000 0.100000 0
0.200000 0.100000 0
0.300000 0.100000 0
0.400000 0.100000 0
0.500000 0.100000 0
0.600000 0.100000 0
0.700000 0.100000 0
0.800000 0.100000 0
0.900000 0.100000 0
1.000000 0.100000 0
1.100000 0.100000 0
1.200000 0.100000 0
1.300000 0.100000 0
1.400000 0.100000 0
1.500000 0.100000 0
1.600000 0.100000 0
1.700000 0.100000 0
1.800000 0.100000 0
1.900000 0.100000 0
2.000000 0.100000 0
0.000000 0.200000 0
0.100000 0.200000 0
0.200000 0.200000 0
0.300000 0.200000 0
0.400000 0.200000 0
0.500000 0.200000 0
0.600000 0.200000 0
0.700000 0.200000 0
0.800000 0.200000 0
0.900000 0.200000 0
1.000000 0.200000 0
1.100000 0.200000 0
1.200000 0.200000 0
1.300000 0.200000 0
1.400000 0.200000 0
1.500000 0.200000 0
1.600000 0.200000 0
1.700000 0.200000 0
1.800000 0.200000 0
1.900000 0.200000 0
2.000000 0.200000 0
0.000000 0.300000 0
0.100000 0.300000 0
0.200000 0.300000 0
0.300000 0.300000 0
0.400000 0.300000 0
0.500000 0.300000 0
0.600000 0.300000 0
0.700000 0.300000 0
0.800000 0.300000 0
0.900000 0.300000 0
1.000000 0.300000 0
1.100000 0.300000 0
1.200000 0.300000 0
1.300000 0.300000 0
1.400000 0.300000 0
1.500000 0.300000 0
1.600000 0.300000 0
1.700000 0.300000 0
1.800000 0.300000 0
1.900000 0.300000 0
2.000000 0.300000 0
0.000000 0.400000 0
0.100000 0.400000 0
0.200000 0.400000 0
0.300000 0.400000 0
0.400000 0.400000 0
0.500000 0.400000 0
0.600000 0.400000 0
0.700000 0.400000 0
0.800000 0.400000 0
0.900000 0.400000 0
1.000000 0.400000 0
1.100000 0.400000 0
1.200000 0.400000 0
1.300000 0.400000 0
1.400000 0.400000 0
1.500000 0.400000 0
1.600000 0.400000 0
1.700000 0.400000 0
1.800000 0.400000 0
1.900000 0.400000 0
2.000000 0.400000 0
0.000000 0.500000 0
0.100000 0.500000 0
0.200000 0.500000 0
0.300000 0.500000 0
0.400000 0.500000 0
0.500000 0.500000 0
0.600000 0.500000 0
0.700000 0.500000 0
0.800000 0.500000 0
0.900000 0.500000 0
1.000000 0.500000 0
1.100000 0.500000 0
1.200000 0.500000 0
1.300000 0.500000 0
1.400000 0.500000 0
1.500000 0.500000 0
1.600000 0.500000 0
1.700000 0.500000 0
1.800000 0.500000 0
1.900000 0.500000 0
2.000000 0.500000 0
0.000000 0.600000 0
0.100000 0.600000 0
0.200000 0.600000 0
0.300000 0.600000 0
0.400000 0.600000 0
0.500000 0.600000 0
0.600000 0.600000 0
0.700000 0.600000 0
0.800000 0.600000 0
0.900000 0.600000 0
1.000000 0.600000 0
1.100000 0.600000 0
1.200000 0.600000 0
1.300000 0.600000 0
1.400000 0.600000 0
1.500000 0.600000 0
1.600000 0.600000 0
1.700000 0.600000 0
1.800000 0.600000 0
1.900000 0.600000 0
2.000000 0.600000 0
0.000000 0.700000 0
0.100000 0.700000 0
0.200000 0.700000 0
0.300000 0.700000 0
0.400000 0.700000 0
0.500000 0.700000 0
0.600000 0.700000 0
0.700000 0.700000 0
0.800000 0.700000 0
0.900000 0.700000 0
1.000000 0.700000 0
1.100000 0.700000 0
1.200000 0.700000 0
1.300000 0.700000 0
1.400000 0.700000 0
1.500000 0.700000 0
1.600000 0.700000 0
1.700000 0.700000 0
1.800000 0.700000 0
1.900000 0.700000 0
2.000000 0.700000 0
0.000000 0.800000 0
0.100000 0.800000 0
0.200000 0.800000 0
0.300000 0.800000 0
0.400000 0.800000 0
0.500000 0.800000 0
0.600000 0.800000 0
0.700000 0.800000 0
0.800000 0.800000 0
0.900000 0.800000 0
1.000000 0.800000 0
1.100000 0.800000 0
1.200000 0.800000 0
1.300000 0.800000 0
1.400000 0.800000 0
1.500000 0.800000 0
1.600000 0.800000 0
1.700000 0.800000 0
1.800000 0.800000 0
1.900000 0.800000 0
2.000000 0.800000 0
0.000000 0.900000 0
0.100000 0.900000 0
0.200000 0.900000 0
0.300000 0.900000 0
0.400000 0.900000 0
0.500000 0.900000 0
0.600000 0.900000 0
0.700000 0.900000 0
0.800000 0.900000 0
0.900000 0.900000 0
1.000000 0.900000 0
1.100000 0.900000 0
1.200000 0.900000 0
1.300000 0.900000 0
1.400000 0.900000 0
1.500000 0.900000 0
1.600000 0.900000 0
1.700000 0.900000 0
1.800000 0.900000 0
1.900000 0.900000 0
2.000000 0.900000 0
0.000000 1.000000 0
0.100000 1.000000 0
0.200000 1.000000 0
0.300000 1.000000 0
0.400000 1.000000 0
0.500000 1.000000 0
0.600000 1.000000 0
0.700000 1.000000 0
0.800000 1.000000 0
0.900000 1.000000 0
1.000000 1.000000 0
1.100000 1.000000 0
1.200000 1.000000 0
1.300000 1.000000 0
1.400000 1.000000 0
1.500000 1.000000 0
1.600000 1.000000 0
1.700000 1.000000 0
1.800000 1.000000 0
1.900000 1.000000 0
2.000000 1.000000 0
0.000000 1.100000 0
0.100000 1.100000 0
0.200000 1.100000 0
0.300000 1.100000 0
0.400000 1.100000 0
0.500000 1.100000 0
0.600000 1.100000 0
0.700000 1.100000 0
0.800000 1.100000 0
0.900000 1.100000 0
1.000000 1.100000 0
1.100000 1.100000 0
1.200000 1.100000 0
1.300000 1.100000 0
1.400000 1.100000 0
1.500000 1.100000 0
1.600000 1.100000 0
1.700000 1.100000 0
1.800000 1.100000 0
1.900000 1.100000 0
2.000000 1.100000 0
0.000000 1.200000 0
0.100000 1.200000 0
0.200000 1.200000 0
0.300000 1.200000 0
0.400000 1.200000 0
0.500000 1.200000 0
0.600000 1.200000 0
0.700000 1.200000 0
0.800000 1.200000 0
0.900000 1.200000 0
1.000000 1.200000 0
1.100000 1.200000 0
1.200000 1.200000 0
1.300000 1.200000 0
1.400000 1.200000 0
1.500000 1.200000 0
1.600000 1.200000 0
1.700000 1.200000 0
1.800000 1.200000 0
1.900000 1.200000 0
2.000000 1.200000 0
0.000000 1.300000 0
0.100000 1.300000 0
0.200000 1.300000 0
0.300000 1.300000 0
0.400000 1.300000 0
0.500000 1.300000 0
0.600000 1.300000 0
0.700000 1.300000 0
0.800000 1.300000 0
0.900000 1.300000 0
1.000000 1.300000 0
1.100000 1.300000 0
1.200000 1.300000 0
1.300000 1.300000 0
1.400000 1.300000 0
1.500000 1.300000 0
1.600000 1.300000 0
1.700000 1.300000 0
1.800000 1.300000 0
1.900000 1.300000 0
2.000000 1.300000 0
0.000000 1.400000 0
0.100000 1.400000 0
0.200000 1.400000 0
0.300000 1.400000 0
0.400000 1.400000 0
0.500000 1.400000 0
0.600000 1.400000 0
0.700000 1.400000 0
0.800000 1.400000 0
0.900000 1.400000 0
1.000000 1.400000 0
1.100000 1.400000 0
1.200000 1.400000 0
1.300000 1.400000 0
1.400000 1.400000 0
1.500000 1.400000 0
1.600000 1.400000 0
1.700000 1.400000 0
1.800000 1.400000 0
1.900000 1.400000 0
2.000000 1.400000 0
0.000000 1.500000 0
0.100000 1.500000 0
0.200000 1.500000 0
0.300000 1.500000 0
0.400000 1.500000 0
0.500000 1.500000 0
0.600000 1.500000 0
0.700000 1.500000 0
0.800000 1.500000 0
0.900000 1.500000 0
1.000000 1.500000 0
1.100000 1.500000 0
1.200000 1.500000 0
1.300000 1.500000 0
1.400000 1.500000 0
1.500000 1.500000 0
1.600000 1.500000 0
1.700000 1.500000 0
1.800000 1.500000 0
1.900000 1.500000 0
2.000000 1.500000 0
0.000000 1.600000 0
0.100000 1.600000 0
0.200000 1.600000 0
0.300000 1.600000 0
0.400000 1.600000 0
0.500000 1.600000 0
0.600000 1.600000 0
0.700000 1.600000 0
0.800000 1.600000 0
0.900000 1.600000 0
1.000000 1.600000 0
1.100000 1.600000 0
1.200000 1.600000 0
1.300000 1.600000 0
1.400000 1.600000 0
1.500000 1.600000 0
1.600000 1.600000 0
1.700000 1.600000 0
1.800000 1.600000 0
1.900000 1.600000 0
2.000000 1.600000 0
0.000000 1.700000 0
0.100000 1.700000 0
0.200000 1.700000 0
0.300000 1.700000 0
0.400000 1.700000 0
0.500000 1.700000 0
0.600000 1.700000 0
0.700000 1.700000 0
0.800000 1.700000 0
0.900000 1.700000 0
1.000000 1.700000 0
1.100000 1.700000 0
1.200000 1.700000 0
1.300000 1.700000 0
1.400000 1.700000 0
1.500000 1.700000 0
1.600000 1.700000 0
1.700000 1.700000 0
1.800000 1.700000 0
1.900000 1.700000 0
2.000000 1.700000 0
0.000000 1.800000 0
0.100000 1.800000 0
0.200000 1.800000 0
0.300000 1.800000 0
0.400000 1.800000 0
0.500000 1.800000 0
0.600000 1.800000 0
0.700000 1.800000 0
0.800000 1.800000 0
0.900000 1.800000 0
1.000000 1.800000 0
1.100000 1.800000 0
1.200000 1.800000 0
1.300000 1.800000 0
1.400000 1.800000 0
1.500000 1.800000 0
1.600000 1.800000 0
1.700000 1.800000 0
1.800000 1.800000 0
1.900000 1.800000 0
2.000000 1.800000 0
0.000000 1.900000 0
0.100000 1.900000 0
0.200000 1.900000 0
0.300000 1.900000 0
0.400000 1.900000 0
0.500000 1.900000 0
0.600000 1.900000 0
0.700000 1.900000 0
0.800000 1.900000 0
0.900000 1.900000 0
1.000000 1.900000 0
1.100000 1.900000 0
1.200000 1.900000 0
1.300000 1.900000 0
1.400000 1.900000 0
1.500000 1.900000 0
1.600000 1.900000 0
1.700000 1.900000 0
1.800000 1.900000 0
1.900000 1.900000 0
2.000000 1.900000 0
0.000000 2.000000 0
0.100000 2.000000 0
0.200000 2.000000 0
0.300000 2.000000 0
0.400000 2.000000 0
0.500000 2.000000 0
0.600000 2.000000 0
0.700000 2.000000 0
0.800000 2.000000 0
0.900000 2.000000 0
1.000000 2.000000 0
1.100000 2.000000 0
1.200000 2.000000 0
1.300000 2.000000 0
1.400000 2.000000 0
1.500000 2.000000 0
1.600000 2.000000 0
1.700000 2.000000 0
1.800000 2.000000 0
1.900000 2.000000 0
2.000000 2.000000 0
POINT_DATA 441 

VECTORS velocity float
0.000000 0.000000 0
0.000007 0.000000 0
-0.000005 0.000000 0
-0.000009 0.000000 0
-0.000006 0.000000 0
-0.000000 0.000000 0
0.000004 0.000000 0
0.000006 0.000000 0
0.000004 0.000000 0
0.000001 0.000000 0
-0.000001 0.000000 0
-0.000002 0.000000 0
-0.000002 0.000000 0
-0.000001 0.000000 0
-0.000000 0.000000 0
0.000000 0.000000 0
0.000000 0.000000 0
0.000000 0.000000 0
0.000000 0.000000 0
-0.000000 0.000000 0
-0.000000 0.000000 0
0.000000 0.000000 0
0.000004 -0.000006 0
0.000001 -0.000015 0
0.000001 -0.000011 0
0.000004 0.000001 0
0.000007 0.000011 0
0.000008 0.000015 0
0.000005 0.000013 0
0.000000 0.000008 0
-0.000006 0.000003 0
-0.000011 -0.000000 0
-0.000016 -0.000001 0
-0.000019 -0.000000 0
-0.000021 0.000001 0
-0.000022 0.000001 0
-0.000023 0.000001 0
-0.000023 0.000001 0
-0.000023 0.000000 0
-0.000023 0.000000 0
-0.000023 -0.000000 0
-0.000023 -0.000000 0
0.000000 -0.000009 0
-0.000002 -0.000012 0
0.000005 -0.000005 0
0.000010 0.000004 0
0.000011 0.000009 0
0.000010 0.000009 0
0.000006 0.000006 0
0.000002 0.000004 0
-0.000003 0.000003 0
-0.000007 0.000004 0
-0.000012 0.000006 0
-0.000016 0.000007 0
-0.000019 0.000007 0
-0.000022 0.000005 0
-0.000024 0.000004 0
-0.000025 0.000002 0
-0.000025 0.000001 0
-0.000024 -0.000000 0
-0.000024 -0.000000 0
-0.000024 -0.000000 0
-0.000024 -0.000000 0
0.000000 -0.000000 0
0.000004 -0.000005 0
0.000011 -0.000001 0
0.000013 -0.000000 0
0.000011 -0.000002 0
0.000009 -0.000002 0
0.000006 0.000001 0
0.000003 0.000006 0
-0.000000 0.000012 0
-0.000005 0.000015 0
-0.000011 0.000016 0
-0.000017 0.000014 0
-0.000021 0.000011 0
-0.000024 0.000007 0
-0.000026 0.000003 0
-0.000026 0.000001 0
-0.000026 -0.000000 0
-0.000025 -0.000001 0
-0.000024 -0.000001 0
-0.000024 -0.000001 0
-0.000023 -0.000001 0
0.000000 0.000005 0
0.000007 -0.000007 0
0.000010 -0.000009 0
0.000012 -0.000010 0
0.000012 -0.000008 0
0.000012 -0.000001 0
0.000012 0.000008 0
0.000009 0.000017 0
0.000003 0.000023 0
-0.000004 0.000024 0
-0.000012 0.000023 0
-0.000020 0.000018 0
-0.000025 0.000012 0
-0.000027 0.000007 0
-0.000028 0.000003 0
-0.000027 0.000000 0
-0.000026 -0.000001 0
-0.000025 -0.000002 0
-0.000024 -0.000002 0
-0.000023 -0.000001 0
-0.000023 -0.000001 0
0.000000 0.000001 0
0.000004 -0.000015 0
0.000009 -0.000016 0
0.000014 -0.000013 0
0.000017 -0.000006 0
0.000019 0.000004 0
0.000018 0.000014 0
0.000014 0.000023 0
0.000006 0.000030 0
-0.000005 0.000031 0
-0.000015 0.000029 0
-0.000024 0.000023 0
-0.000029 0.000015 0
-0.000031 0.000008 0
-0.000030 0.000003 0
-0.000028 -0.000000 0
-0.000026 -0.000002 0
-0.000024 -0.000003 0
-0.000023 -0.000002 0
-0.000022 -0.000001 0
-0.000022 -0.000001 0
0.000000 -0.000002 0
0.000003 -0.000021 0
0.000010 -0.000019 0
0.000017 -0.000014 0
0.000022 -0.000006 0
0.000025 0.000003 0
0.000024 0.000015 0
0.000019 0.000027 0
0.000009 0.000037 0
-0.000005 0.000042 0
-0.000018 0.000039 0
-0.000027 0.000030 0
-0.000032 0.000019 0
-0.000033 0.000009 0
-0.000032 0.000002 0
-0.000029 -0.000003 0
-0.000026 -0.000005 0
-0.000023 -0.000005 0
-0.000022 -0.000004 0
-0.000021 -0.000002 0
-0.000020 -0.000001 0
0.000000 -0.000000 0
0.000004 -0.000025 0
0.000012 -0.000023 0
0.000019 -0.000019 0
0.000024 -0.000012 0
0.000028 -0.000001 0
0.000028 0.000015 0
0.000023 0.000034 0
0.000012 0.000050 0
-0.000003 0.000058 0
-0.000019 0.000053 0
-0.000030 0.000040 0
-0.000035 0.000023 0
-0.000035 0.000008 0
-0.000032 -0.000001 0
-0.000028 -0.000006 0
-0.000024 -0.000008 0
-0.000021 -0.000007 0
-0.000019 -0.000005 0
-0.000018 -0.000003 0
-0.000018 -0.000001 0
0.000000 0.000001 0
0.000005 -0.000030 0
0.000011 -0.000030 0
0.000017 -0.000027 0
0.000024 -0.000020 0
0.000029 -0.000005 0
0.000030 0.000017 0
0.000026 0.000043 0
0.000015 0.000066 0
-0.000002 0.000076 0
-0.000019 0.000068 0
-0.000031 0.000048 0
-0.000035 0.000024 0
-0.000034 0.000006 0
-0.000030 -0.000006 0
-0.000025 -0.000011 0
-0.000021 -0.000012 0
-0.000018 -0.000010 0
-0.000015 -0.000007 0
-0.000014 -0.000003 0
-0.000014 -0.000002 0
0.000000 0.000000 0
0.000003 -0.000036 0
0.000008 -0.000037 0
0.000014 -0.000034 0
0.000020 -0.000025 0
0.000025 -0.000008 0
0.000027 0.000019 0
0.000024 0.000052 0
0.000014 0.000081 0
-0.000001 0.000093 0
-0.000017 0.000082 0
-0.000027 0.000055 0
-0.000029 0.000025 0
-0.000027 0.000002 0
-0.000023 -0.000011 0
-0.000019 -0.000015 0
-0.000015 -0.000015 0
-0.000012 -0.000013 0
-0.000010 -0.000009 0
-0.000010 -0.000004 0
-0.000010 -0.000002 0
0.000000 -0.000001 0
0.000001 -0.000040 0
0.000004 -0.000040 0
0.000008 -0.000037 0
0.000012 -0.000028 0
0.000015 -0.000011 0
0.000016 0.000018 0
0.000014 0.000056 0
0.000009 0.000091 0
-0.000001 0.000106 0
-0.000009 0.000092 0
-0.000015 0.000060 0
-0.000016 0.000025 0
-0.000014 -0.000000 0
-0.000012 -0.000014 0
-0.000009 -0.000019 0
-0.000007 -0.000018 0
-0.000005 -0.000014 0
-0.000004 -0.000010 0
-0.000004 -0.000004 0
-0.000004 -0.000002 0
0.000000 -0.000000 0
-0.000001 -0.000041 0
-0.000000 -0.000041 0
-0.000000 -0.000038 0
0.000000 -0.000030 0
0.000000 -0.000013 0
-0.000000 0.000017 0
-0.000000 0.000057 0
0.000000 0.000094 0
0.000001 0.000110 0
0.000001 0.000097 0
0.000002 0.000062 0
0.000002 0.000025 0
0.000002 -0.000002 0
0.000002 -0.000016 0
0.000002 -0.000020 0
0.000002 -0.000019 0
0.000002 -0.000015 0
0.000002 -0.000010 0
0.000002 -0.000005 0
0.000002 -0.000002 0
0.000000 0.000000 0
-0.000002 -0.000039 0
-0.000005 -0.000040 0
-0.000008 -0.000037 0
-0.000011 -0.000029 0
-0.000014 -0.000012 0
-0.000016 0.000017 0
-0.000014 0.000055 0
-0.000008 0.000090 0
0.000002 0.000105 0
0.000012 0.000092 0
0.000018 0.000060 0
0.000020 0.000025 0
0.000019 -0.000001 0
0.000016 -0.000014 0
0.000014 -0.000019 0
0.000012 -0.000018 0
0.000010 -0.000015 0
0.000009 -0.000010 0
0.000009 -0.000004 0
0.000008 -0.000002 0
0.000000 0.000000 0
-0.000004 -0.000036 0
-0.000009 -0.000036 0
-0.000014 -0.000033 0
-0.000019 -0.000024 0
-0.000024 -0.000008 0
-0.000026 0.000018 0
-0.000023 0.000050 0
-0.000013 0.000078 0
0.000003 0.000091 0
0.000019 0.000080 0
0.000029 0.000054 0
0.000033 0.000025 0
0.000031 0.000002 0
0.000027 -0.000011 0
0.000023 -0.000016 0
0.000020 -0.000016 0
0.000017 -0.000013 0
0.000015 -0.000009 0
0.000014 -0.000004 0
0.000014 -0.000002 0
0.000000 -0.000000 0
-0.000005 -0.000031 0
-0.000012 -0.000030 0
-0.000018 -0.000026 0
-0.000023 -0.000018 0
-0.000028 -0.000004 0
-0.000030 0.000017 0
-0.000026 0.000042 0
-0.000014 0.000063 0
0.000004 0.000072 0
0.000021 0.000065 0
0.000034 0.000046 0
0.000038 0.000023 0
0.000038 0.000005 0
0.000034 -0.000006 0
0.000029 -0.000011 0
0.000025 -0.000012 0
0.000022 -0.000010 0
0.000020 -0.000007 0
0.000019 -0.000003 0
0.000019 -0.000001 0
0.000000 -0.000000 0
-0.000006 -0.000025 0
-0.000012 -0.000024 0
-0.000018 -0.000020 0
-0.000024 -0.000013 0
-0.000028 -0.000001 0
-0.000028 0.000015 0
-0.000023 0.000033 0
-0.000012 0.000048 0
0.000005 0.000055 0
0.000021 0.000050 0
0.000033 0.000037 0
0.000039 0.000021 0
0.000039 0.000007 0
0.000037 -0.000002 0
0.000033 -0.000007 0
0.000029 -0.000009 0
0.000026 -0.000008 0
0.000024 -0.000005 0
0.000023 -0.000003 0
0.000023 -0.000001 0
0.000000 -0.000000 0
-0.000005 -0.000019 0
-0.000011 -0.000018 0
-0.000017 -0.000014 0
-0.000022 -0.000008 0
-0.000025 0.000001 0
-0.000024 0.000012 0
-0.000019 0.000025 0
-0.000008 0.000035 0
0.000005 0.000040 0
0.000019 0.000037 0
0.000030 0.000028 0
0.000036 0.000017 0
0.000038 0.000007 0
0.000036 0.000000 0
0.000034 -0.000004 0
0.000031 -0.000006 0
0.000029 -0.000005 0
0.000027 -0.000004 0
0.000026 -0.000002 0
0.000026 -0.000001 0
0.000000 -0.000000 0
-0.000005 -0.000014 0
-0.000010 -0.000013 0
-0.000015 -0.000010 0
-0.000019 -0.000005 0
-0.000021 0.000001 0
-0.000019 0.000009 0
-0.000014 0.000018 0
-0.000005 0.000024 0
0.000006 0.000027 0
0.000017 0.000025 0
0.000027 0.000020 0
0.000033 0.000013 0
0.000035 0.000006 0
0.000035 0.000001 0
0.000034 -0.000002 0
0.000032 -0.000003 0
0.000030 -0.000003 0
0.000029 -0.000003 0
0.000028 -0.000001 0
0.000028 -0.000001 0
0.000000 -0.000000 0
-0.000005 -0.000009 0
-0.000010 -0.000008 0
-0.000014 -0.000006 0
-0.000017 -0.000003 0
-0.000017 0.000001 0
-0.000016 0.000006 0
-0.000011 0.000011 0
-0.000003 0.000015 0
0.000006 0.000017 0
0.000016 0.000016 0
0.000024 0.000013 0
0.000030 0.000009 0
0.000033 0.000005 0
0.000034 0.000001 0
0.000034 -0.000001 0
0.000032 -0.000002 0
0.000031 -0.000002 0
0.000030 -0.000002 0
0.000029 -0.000001 0
0.000029 -0.000001 0
0.000000 -0.000000 0
-0.000004 -0.000004 0
-0.000009 -0.000004 0
-0.000012 -0.000003 0
-0.000015 -0.000001 0
-0.000015 0.000001 0
-0.000013 0.000003 0
-0.000009 0.000005 0
-0.000002 0.000007 0
0.000006 0.000008 0
0.000015 0.000007 0
0.000022 0.000006 0
0.000028 0.000004 0
0.000031 0.000002 0
0.000032 0.000001 0
0.000032 -0.000000 0
0.000031 -0.000001 0
0.000030 -0.000001 0
0.000029 -0.000001 0
0.000029 -0.000000 0
0.000029 -0.000000 0
0.000000 0.000000 0
0.000000 0.000000 0
0.000000 0.000000 0
-0.000000 0.000000 0
-0.000000 0.000000 0
-0.000000 0.000000 0
-0.000000 0.000000 0
0.000000 0.000000 0
0.000000 0.000000 0
0.000000 0.000000 0
0.000000 0.000000 0
0.000000 0.000000 0
0.000000 0.000000 0
0.000000 0.000000 0
0.000000 0.000000 0
0.000000 0.000000 0
0.000000 0.000000 0
0.000000 0.000000 0
0.000000 0.000000 0
0.000000 0.000000 0
0.000000 0.000000 0

CELL_DATA 400 
SCALARS pressure float 1 
LOOKUP_TABLE default 
0.242604
0.242577
0.242597
0.242634
0.242660
0.242662
0.242644
0.242621
0.242604
0.242599
0.242603
0.242611
0.242618
0.242623
0.242624
0.242624
0.242623
0.242622
0.242622
0.242623
0.219602
0.219628
0.219641
0.219638
0.219623
0.219608
0.219602
0.219603
0.219610
0.219618
0.219623
0.219624
0.219624
0.219622
0.219621
0.219620
0.219620
0.219621
0.219622
0.219622
0.196639
0.196641
0.196620
0.196599
0.196591
0.196598
0.196612
0.196625
0.196631
0.196631
0.196626
0.196621
0.196618
0.196617
0.196618
0.196619
0.196620
0.196621
0.196622
0.196622
0.173639
0.173619
0.173602
0.173597
0.173606
0.173620
0.173630
0.173633
0.173629
0.173623
0.173618
0.173615
0.173615
0.173617
0.173619
0.173620
0.173621
0.173622
0.173622
0.173623
0.150619
0.150614
0.150615
0.150618
0.150623
0.150625
0.150624
0.150621
0.150618
0.150616
0.150616
0.150617
0.150618
0.150619
0.150620
0.150621
0.150621
0.150622
0.150622
0.150622
0.127616
0.127625
0.127627
0.127623
0.127618
0.127613
0.127612
0.127614
0.127616
0.127619
0.127620
0.127621
0.127621
0.127620
0.127620
0.127621
0.127621
0.127621
0.127622
0.127622
0.104624
0.104629
0.104624
0.104616
0.104611
0.104610
0.104613
0.104617
0.104621
0.104622
0.104622
0.104621
0.104620
0.104619
0.104620
0.104620
0.104621
0.104621
0.104622
0.104622
0.081625
0.081624
0.081620
0.081616
0.081614
0.081616
0.081618
0.081621
0.081622
0.081621
0.081620
0.081619
0.081619
0.081619
0.081620
0.081621
0.081621
0.081622
0.081622
0.081622
0.058620
0.058621
0.058622
0.058622
0.058621
0.058620
0.058619
0.058619
0.058619
0.058619
0.058619
0.058620
0.058620
0.058621
0.058621
0.058622
0.058622
0.058622
0.058622
0.058622
0.035618
0.035623
0.035626
0.035625
0.035623
0.035619
0.035618
0.035617
0.035618
0.035620
0.035621
0.035622
0.035622
0.035622
0.035622
0.035622
0.035622
0.035622
0.035622
0.035622
0.012621
0.012625
0.012626
0.012625
0.012622
0.012619
0.012619
0.012620
0.012621
0.012623
0.012623
0.012623
0.012623
0.012623
0.012622
0.012622
0.012622
0.012622
0.012622
0.012623
-0.010377
-0.010376
-0.010375
-0.010376
-0.010377
-0.010378
-0.010377
-0.010377
-0.010376
-0.010376
-0.010376
-0.010376
-0.010376
-0.010377
-0.010377
-0.010377
-0.010377
-0.010377
-0.010377
-0.010377
-0.033377
-0.033377
-0.033375
-0.033374
-0.033374
-0.033374
-0.033375
-0.033375
-0.033375
-0.033375
-0.033375
-0.033375
-0.033375
-0.033376
-0.033376
-0.033376
-0.033377
-0.033377
-0.033377
-0.033377
-0.056377
-0.056376
-0.056374
-0.056372
-0.056372
-0.056373
-0.056374
-0.056375
-0.056375
-0.056374
-0.056374
-0.056374
-0.056374
-0.056375
-0.056375
-0.056376
-0.056376
-0.056377
-0.056377
-0.056377
-0.079376
-0.079375
-0.079373
-0.079373
-0.079373
-0.079373
-0.079374
-0.079374
-0.079373
-0.079373
-0.079373
-0.079373
-0.079374
-0.079374
-0.079375
-0.079376
-0.079376
-0.079377
-0.079377
-0.079377
-0.102375
-0.102375
-0.102374
-0.102373
-0.102373
-0.102372
-0.102372
-0.102372
-0.102373
-0.102373
-0.102373
-0.102373
-0.102374
-0.102374
-0.102375
-0.102375
-0.102376
-0.102376
-0.102377
-0.102377
-0.125374
-0.125375
-0.125374
-0.125373
-0.125372
-0.125372
-0.125372
-0.125372
-0.125372
-0.125373
-0.125373
-0.125373
-0.125373
-0.125374
-0.125374
-0.125375
-0.125376
-0.125376
-0.125377
-0.125377
-0.148374
-0.148374
-0.148374
-0.148373
-0.148372
-0.148372
-0.148372
-0.148372
-0.148372
-0.148373
-0.148373
-0.148373
-0.148373
-0.148374
-0.148374
-0.148375
-0.148376
-0.148376
-0.148377
-0.148377
-0.171374
-0.171374
-0.171374
-0.171373
-0.171372
-0.171372
-0.171372
-0.171372
-0.171372
-0.171372
-0.171373
-0.171373
-0.171373
-0.171374
-0.171374
-0.171375
-0.171376
-0.171376
-0.171377
-0.171377
-0.194373
-0.194374
-0.194374
-0.194373
-0.194373
-0.194372
-0.194372
-0.194372
-0.194372
-0.194372
-0.194372
-0.194373
-0.194373
-0.194374
-0.194374
-0.194375
-0.194375
-0.194376
-0.194377
-0.194377

SCALARS temperature float 1 
LOOKUP_TABLE default 
0.000001
0.000011
0.000032
0.000064
0.000108
0.000160
0.000212
0.000256
0.000284
0.000288
0.000269
0.000232
0.000185
0.000138
0.000097
0.000064
0.000041
0.000026
0.000018
0.000014
0.000002
0.000015
0.000043
0.000087
0.000146
0.000216
0.000288
0.000349
0.000386
0.000391
0.000364
0.000312
0.000248
0.000184
0.000128
0.000084
0.000054
0.000034
0.000023
0.000018
0.000003
0.000024
0.000068
0.000139
0.000236
0.000352
0.000472
0.000574
0.000635
0.000642
0.000595
0.000507
0.000398
0.000291
0.000200
0.000130
0.000082
0.000051
0.000034
0.000027
0.000004
0.000040
0.000117
0.000240
0.000412
0.000620
0.000839
0.001026
0.001139
0.001149
0.001057
0.000891
0.000691
0.000498
0.000336
0.000215
0.000133
0.000083
0.000055
0.000042
0.000008
0.000069
0.000201
0.000417
0.000723
0.001104
0.001510
0.001863
0.002075
0.002089
0.001907
0.001585
0.001210
0.000856
0.000567
0.000357
0.000218
0.000133
0.000087
0.000067
0.000012
0.000113
0.000333
0.000700
0.001231
0.001908
0.002648
0.003304
0.003701
0.003719
0.003362
0.002752
0.002061
0.001428
0.000927
0.000572
0.000343
0.000207
0.000133
0.000102
0.000019
0.000175
0.000521
0.001110
0.001986
0.003135
0.004431
0.005607
0.006327
0.006346
0.005674
0.004562
0.003341
0.002262
0.001436
0.000869
0.000512
0.000304
0.000194
0.000147
0.000028
0.000253
0.000758
0.001640
0.002988
0.004817
0.006953
0.008954
0.010198
0.010213
0.009016
0.007100
0.005074
0.003351
0.002079
0.001233
0.000714
0.000418
0.000264
0.000199
0.000037
0.000336
0.001017
0.002229
0.004136
0.006811
0.010053
0.013195
0.015188
0.015190
0.013233
0.010197
0.007106
0.004579
0.002781
0.001619
0.000924
0.000535
0.000335
0.000252
0.000045
0.000408
0.001244
0.002755
0.005188
0.008699
0.013094
0.017485
0.020325
0.020309
0.017489
0.013224
0.009019
0.005696
0.003400
0.001953
0.001102
0.000633
0.000394
0.000295
0.000049
0.000450
0.001377
0.003068
0.005822
0.009861
0.015009
0.020245
0.023673
0.023647
0.020231
0.015133
0.010198
0.006369
0.003768
0.002149
0.001207
0.000690
0.000429
0.000321
0.000049
0.000450
0.001376
0.003062
0.005802
0.009814
0.014918
0.020101
0.023494
0.023474
0.020103
0.015059
0.010165
0.006360
0.003769
0.002154
0.001211
0.000694
0.000432
0.000324
0.000045
0.000408
0.001243
0.002744
0.005147
0.008597
0.012893
0.017169
0.019936
0.019934
0.017211
0.013065
0.008954
0.005683
0.003410
0.001969
0.001117
0.000644
0.000403
0.000303
0.000037
0.000339
0.001022
0.002228
0.004111
0.006730
0.009882
0.012921
0.014851
0.014869
0.013001
0.010077
0.007073
0.004594
0.002813
0.001652
0.000951
0.000555
0.000350
0.000265
0.000029
0.000259
0.000775
0.001664
0.003011
0.004818
0.006910
0.008858
0.010071
0.010099
0.008956
0.007104
0.005124
0.003419
0.002145
0.001287
0.000754
0.000447
0.000286
0.000217
0.000021
0.000187
0.000552
0.001167
0.002069
0.003238
0.004543
0.005720
0.006441
0.006471
0.005816
0.004716
0.003492
0.002395
0.001542
0.000946
0.000566
0.000341
0.000221
0.000169
0.000014
0.000129
0.000378
0.000788
0.001373
0.002108
0.002901
0.003599
0.004022
0.004049
0.003682
0.003044
0.002308
0.001623
0.001071
0.000672
0.000410
0.000252
0.000165
0.000128
0.000010
0.000090
0.000260
0.000534
0.000916
0.001384
0.001877
0.002302
0.002559
0.002582
0.002371
0.001991
0.001540
0.001106
0.000746
0.000478
0.000297
0.000185
0.000123
0.000096
0.000007
0.000065
0.000189
0.000384
0.000652
0.000973
0.001306
0.001590
0.001761
0.001780
0.001647
0.001399
0.001098
0.000802
0.000550
0.000358
0.000226
0.000143
0.000096
0.000076
0.000006
0.000054
0.000156
0.000316
0.000533
0.000791
0.001056
0.001280
0.001416
0.001433
0.001331
0.001138
0.000901
0.000664
0.000460
0.000302
0.000193
0.000123
0.000083
0.000065


SCALARS Species_1 float 1 
LOOKUP_TABLE default 
0.000369
0.001134
0.001975
0.002926
0.004004
0.005200
0.006481
0.007789
0.009047
0.010167
0.011065
0.011678
0.011969
0.011943
0.011642
0.011146
0.010559
0.009991
0.009547
0.009304
0.000387
0.001189
0.002070
0.003064
0.004189
0.005437
0.006771
0.008132
0.009439
0.010602
0.011535
0.012170
0.012472
0.012444
0.012133
0.011619
0.011011
0.010423
0.009963
0.009712
0.000419
0.001286
0.002237
0.003310
0.004521
0.005861
0.007294
0.008753
0.010153
0.011397
0.012394
0.013072
0.013393
0.013362
0.013027
0.012477
0.011827
0.011199
0.010708
0.010440
0.000460
0.001412
0.002455
0.003629
0.004952
0.006416
0.007977
0.009566
0.011089
0.012441
0.013523
0.014257
0.014603
0.014566
0.014200
0.013602
0.012894
0.012213
0.011680
0.011389
0.000505
0.001551
0.002694
0.003979
0.005426
0.007024
0.008728
0.010459
0.012117
0.013587
0.014762
0.015558
0.015931
0.015889
0.015489
0.014836
0.014067
0.013325
0.012746
0.012430
0.000549
0.001683
0.002921
0.004312
0.005877
0.007602
0.009440
0.011307
0.013092
0.014674
0.015937
0.016792
0.017191
0.017143
0.016711
0.016008
0.015180
0.014382
0.013759
0.013420
0.000584
0.001790
0.003106
0.004582
0.006241
0.008069
0.010014
0.011988
0.013876
0.015547
0.016880
0.017781
0.018202
0.018150
0.017693
0.016950
0.016075
0.015234
0.014577
0.014219
0.000605
0.001856
0.003220
0.004749
0.006465
0.008354
0.010364
0.012403
0.014350
0.016074
0.017449
0.018378
0.018811
0.018757
0.018286
0.017521
0.016620
0.015754
0.015078
0.014709
0.000611
0.001872
0.003246
0.004786
0.006513
0.008413
0.010433
0.012482
0.014438
0.016169
0.017550
0.018482
0.018918
0.018865
0.018394
0.017627
0.016725
0.015857
0.015180
0.014811
0.000598
0.001833
0.003177
0.004682
0.006370
0.008226
0.010199
0.012198
0.014107
0.015796
0.017143
0.018054
0.018481
0.018431
0.017974
0.017229
0.016352
0.015508
0.014849
0.014490
0.000568
0.001740
0.003016
0.004443
0.006043
0.007803
0.009672
0.011566
0.013374
0.014975
0.016252
0.017116
0.017522
0.017478
0.017048
0.016347
0.015520
0.014723
0.014101
0.013762
0.000523
0.001602
0.002776
0.004089
0.005561
0.007179
0.008898
0.010639
0.012301
0.013773
0.014948
0.015744
0.016121
0.016084
0.015693
0.015053
0.014296
0.013567
0.012997
0.012687
0.000467
0.001430
0.002479
0.003652
0.004965
0.006409
0.007943
0.009497
0.010981
0.012296
0.013346
0.014059
0.014398
0.014369
0.014025
0.013458
0.012786
0.012139
0.011633
0.011356
0.000405
0.001241
0.002150
0.003168
0.004307
0.005559
0.006889
0.008238
0.009525
0.010667
0.011580
0.012202
0.012499
0.012479
0.012185
0.011697
0.011118
0.010559
0.010122
0.009883
0.000342
0.001048
0.001816
0.002676
0.003639
0.004697
0.005821
0.006961
0.008050
0.009016
0.009791
0.010319
0.010575
0.010562
0.010318
0.009909
0.009423
0.008953
0.008585
0.008384
0.000282
0.000866
0.001502
0.002213
0.003009
0.003885
0.004815
0.005759
0.006662
0.007464
0.008108
0.008549
0.008764
0.008758
0.008559
0.008225
0.007825
0.007439
0.007135
0.006969
0.000231
0.000708
0.001227
0.001809
0.002460
0.003177
0.003939
0.004712
0.005452
0.006111
0.006641
0.007005
0.007185
0.007183
0.007025
0.006754
0.006429
0.006114
0.005867
0.005732
0.000189
0.000581
0.001008
0.001487
0.002023
0.002613
0.003241
0.003879
0.004490
0.005035
0.005474
0.005777
0.005929
0.005931
0.005803
0.005582
0.005317
0.005059
0.004856
0.004744
0.000161
0.000494
0.000857
0.001264
0.001720
0.002223
0.002758
0.003302
0.003824
0.004290
0.004666
0.004927
0.005059
0.005063
0.004957
0.004771
0.004546
0.004327
0.004154
0.004059
0.000146
0.000449
0.000779
0.001150
0.001565
0.002024
0.002511
0.003008
0.003484
0.003910
0.004254
0.004493
0.004615
0.004620
0.004525
0.004356
0.004152
0.003952
0.003795
0.003709


SCALARS Species_2 float 1 
LOOKUP_TABLE default 
0.000219
0.000645
0.001029
0.001351
0.001590
0.001739
0.001796
0.001767
0.001666
0.001511
0.001321
0.001116
0.000912
0.000722
0.000555
0.000416
0.000307
0.000227
0.000175
0.000149
0.000254
0.000747
0.001192
0.001563
0.001840
0.002012
0.002077
0.002043
0.001926
0.001747
0.001528
0.001290
0.001055
0.000835
0.000643
0.000482
0.000356
0.000263
0.000203
0.000173
0.000323
0.000949
0.001514
0.001984
0.002334
0.002550
0.002631
0.002587
0.002438
0.002210
0.001932
0.001632
0.001334
0.001057
0.000813
0.000610
0.000450
0.000333
0.000257