# vtk DataFile Version 2.0
generated by CFD-lab course output (written by Tobias Neckel) 
ASCII

DATASET STRUCTURED_GRID
DIMENSIONS  21 21 1 
POINTS 441 float

0.000000 0.000000 0
0.100000 0.000000 0
0.200000 0.000000 0
0.300000 0.000000 0
0.400000 0.000000 0
0.500000 0.000000 0
0.600000 0.000000 0
0.700000 0.000000 0
0.800000 0.000000 0
0.900000 0.000000 0
1.000000 0.000000 0
1.100000 0.000000 0
1.200000 0.000000 0
1.300000 0.000000 0
1.400000 0.000000 0
1.500000 0.000000 0
1.600000 0.000000 0
1.700000 0.000000 0
1.800000 0.000000 0
1.900000 0.000000 0
2.000000 0.000000 0
0.000000 0.100000 0
0.100000 0.100000 0
0.200000 0.100000 0
0.300000 0.100000 0
0.400000 0.100000 0
0.500000 0.100000 0
0.600000 0.100000 0
0.700000 0.100000 0
0.800000 0.100000 0
0.900000 0.100000 0
1.000000 0.100000 0
1.100000 0.100000 0
1.200000 0.100000 0
1.300000 0.100000 0
1.400000 0.100000 0
1.500000 0.100000 0
1.600000 0.100000 0
1.700000 0.100000 0
1.800000 0.100000 0
1.900000 0.100000 0
2.000000 0.100000 0
0.000000 0.200000 0
0.100000 0.200000 0
0.200000 0.200000 0
0.300000 0.200000 0
0.400000 0.200000 0
0.500000 0.200000 0
0.600000 0.200000 0
0.700000 0.200000 0
0.800000 0.200000 0
0.900000 0.200000 0
1.000000 0.200000 0
1.100000 0.200000 0
1.200000 0.200000 0
1.300000 0.200000 0
1.400000 0.200000 0
1.500000 0.200000 0
1.600000 0.200000 0
1.700000 0.200000 0
1.800000 0.200000 0
1.900000 0.200000 0
2.000000 0.200000 0
0.000000 0.300000 0
0.100000 0.300000 0
0.200000 0.300000 0
0.300000 0.300000 0
0.400000 0.300000 0
0.500000 0.300000 0
0.600000 0.300000 0
0.700000 0.300000 0
0.800000 0.300000 0
0.900000 0.300000 0
1.000000 0.300000 0
1.100000 0.300000 0
1.200000 0.300000 0
1.300000 0.300000 0
1.400000 0.300000 0
1.500000 0.300000 0
1.600000 0.300000 0
1.700000 0.300000 0
1.800000 0.300000 0
1.900000 0.300000 0
2.000000 0.300000 0
0.000000 0.400000 0
0.100000 0.400000 0
0.200000 0.400000 0
0.300000 0.400000 0
0.400000 0.400000 0
0.500000 0.400000 0
0.600000 0.400000 0
0.700000 0.400000 0
0.800000 0.400000 0
0.900000 0.400000 0
1.000000 0.400000 0
1.100000 0.400000 0
1.200000 0.400000 0
1.300000 0.400000 0
1.400000 0.400000 0
1.500000 0.400000 0
1.600000 0.400000 0
1.700000 0.400000 0
1.800000 0.400000 0
1.900000 0.400000 0
2.000000 0.400000 0
0.000000 0.500000 0
0.100000 0.500000 0
0.200000 0.500000 0
0.300000 0.500000 0
0.400000 0.500000 0
0.500000 0.500000 0
0.600000 0.500000 0
0.700000 0.500000 0
0.800000 0.500000 0
0.900000 0.500000 0
1.000000 0.500000 0
1.100000 0.500000 0
1.200000 0.500000 0
1.300000 0.500000 0
1.400000 0.500000 0
1.500000 0.500000 0
1.600000 0.500000 0
1.700000 0.500000 0
1.800000 0.500000 0
1.900000 0.500000 0
2.000000 0.500000 0
0.000000 0.600000 0
0.100000 0.600000 0
0.200000 0.600000 0
0.300000 0.600000 0
0.400000 0.600000 0
0.500000 0.600000 0
0.600000 0.600000 0
0.700000 0.600000 0
0.800000 0.600000 0
0.900000 0.600000 0
1.000000 0.600000 0
1.100000 0.600000 0
1.200000 0.600000 0
1.300000 0.600000 0
1.400000 0.600000 0
1.500000 0.600000 0
1.600000 0.600000 0
1.700000 0.600000 0
1.800000 0.600000 0
1.900000 0.600000 0
2.000000 0.600000 0
0.000000 0.700000 0
0.100000 0.700000 0
0.200000 0.700000 0
0.300000 0.700000 0
0.400000 0.700000 0
0.500000 0.700000 0
0.600000 0.700000 0
0.700000 0.700000 0
0.800000 0.700000 0
0.900000 0.700000 0
1.000000 0.700000 0
1.100000 0.700000 0
1.200000 0.700000 0
1.300000 0.700000 0
1.400000 0.700000 0
1.500000 0.700000 0
1.600000 0.700000 0
1.700000 0.700000 0
1.800000 0.700000 0
1.900000 0.700000 0
2.000000 0.700000 0
0.000000 0.800000 0
0.100000 0.800000 0
0.200000 0.800000 0
0.300000 0.800000 0
0.400000 0.800000 0
0.500000 0.800000 0
0.600000 0.800000 0
0.700000 0.800000 0
0.800000 0.800000 0
0.900000 0.800000 0
1.000000 0.800000 0
1.100000 0.800000 0
1.200000 0.800000 0
1.300000 0.800000 0
1.400000 0.800000 0
1.500000 0.800000 0
1.600000 0.800000 0
1.700000 0.800000 0
1.800000 0.800000 0
1.900000 0.800000 0
2.000000 0.800000 0
0.000000 0.900000 0
0.100000 0.900000 0
0.200000 0.900000 0
0.300000 0.900000 0
0.400000 0.900000 0
0.500000 0.900000 0
0.600000 0.900000 0
0.700000 0.900000 0
0.800000 0.900000 0
0.900000 0.900000 0
1.000000 0.900000 0
1.100000 0.900000 0
1.200000 0.900000 0
1.300000 0.900000 0
1.400000 0.900000 0
1.500000 0.900000 0
1.600000 0.900000 0
1.700000 0.900000 0
1.800000 0.900000 0
1.900000 0.900000 0
2.000000 0.900000 0
0.000000 1.000000 0
0.100000 1.000000 0
0.200000 1.000000 0
0.300000 1.000000 0
0.400000 1.000000 0
0.500000 1.000000 0
0.600000 1.000000 0
0.700000 1.000000 0
0.800000 1.000000 0
0.900000 1.000000 0
1.000000 1.000000 0
1.100000 1.000000 0
1.200000 1.000000 0
1.300000 1.000000 0
1.400000 1.000000 0
1.500000 1.000000 0
1.600000 1.000000 0
1.700000 1.000000 0
1.800000 1.000000 0
1.900000 1.000000 0
2.000000 1.000000 0
0.000000 1.100000 0
0.100000 1.100000 0
0.200000 1.100000 0
0.300000 1.100000 0
0.400000 1.100000 0
0.500000 1.100000 0
0.600000 1.100000 0
0.700000 1.100000 0
0.800000 1.100000 0
0.900000 1.100000 0
1.000000 1.100000 0
1.100000 1.100000 0
1.200000 1.100000 0
1.300000 1.100000 0
1.400000 1.100000 0
1.500000 1.100000 0
1.600000 1.100000 0
1.700000 1.100000 0
1.800000 1.100000 0
1.900000 1.100000 0
2.000000 1.100000 0
0.000000 1.200000 0
0.100000 1.200000 0
0.200000 1.200000 0
0.300000 1.200000 0
0.400000 1.200000 0
0.500000 1.200000 0
0.600000 1.200000 0
0.700000 1.200000 0
0.800000 1.200000 0
0.900000 1.200000 0
1.000000 1.200000 0
1.100000 1.200000 0
1.200000 1.200000 0
1.300000 1.200000 0
1.400000 1.200000 0
1.500000 1.200000 0
1.600000 1.200000 0
1.700000 1.200000 0
1.800000 1.200000 0
1.900000 1.200000 0
2.000000 1.200000 0
0.000000 1.300000 0
0.100000 1.300000 0
0.200000 1.300000 0
0.300000 1.300000 0
0.400000 1.300000 0
0.500000 1.300000 0
0.600000 1.300000 0
0.700000 1.300000 0
0.800000 1.300000 0
0.900000 1.300000 0
1.000000 1.300000 0
1.100000 1.300000 0
1.200000 1.300000 0
1.300000 1.300000 0
1.400000 1.300000 0
1.500000 1.300000 0
1.600000 1.300000 0
1.700000 1.300000 0
1.800000 1.300000 0
1.900000 1.300000 0
2.000000 1.300000 0
0.000000 1.400000 0
0.100000 1.400000 0
0.200000 1.400000 0
0.300000 1.400000 0
0.400000 1.400000 0
0.500000 1.400000 0
0.600000 1.400000 0
0.700000 1.400000 0
0.800000 1.400000 0
0.900000 1.400000 0
1.000000 1.400000 0
1.100000 1.400000 0
1.200000 1.400000 0
1.300000 1.400000 0
1.400000 1.400000 0
1.500000 1.400000 0
1.600000 1.400000 0
1.700000 1.400000 0
1.800000 1.400000 0
1.900000 1.400000 0
2.000000 1.400000 0
0.000000 1.500000 0
0.100000 1.500000 0
0.200000 1.500000 0
0.300000 1.500000 0
0.400000 1.500000 0
0.500000 1.500000 0
0.600000 1.500000 0
0.700000 1.500000 0
0.800000 1.500000 0
0.900000 1.500000 0
1.000000 1.500000 0
1.100000 1.500000 0
1.200000 1.500000 0
1.300000 1.500000 0
1.400000 1.500000 0
1.500000 1.500000 0
1.600000 1.500000 0
1.700000 1.500000 0
1.800000 1.500000 0
1.900000 1.500000 0
2.000000 1.500000 0
0.000000 1.600000 0
0.100000 1.600000 0
0.200000 1.600000 0
0.300000 1.600000 0
0.400000 1.600000 0
0.500000 1.600000 0
0.600000 1.600000 0
0.700000 1.600000 0
0.800000 1.600000 0
0.900000 1.600000 0
1.000000 1.600000 0
1.100000 1.600000 0
1.200000 1.600000 0
1.300000 1.600000 0
1.400000 1.600000 0
1.500000 1.600000 0
1.600000 1.600000 0
1.700000 1.600000 0
1.800000 1.600000 0
1.900000 1.600000 0
2.000000 1.600000 0
0.000000 1.700000 0
0.100000 1.700000 0
0.200000 1.700000 0
0.300000 1.700000 0
0.400000 1.700000 0
0.500000 1.700000 0
0.600000 1.700000 0
0.700000 1.700000 0
0.800000 1.700000 0
0.900000 1.700000 0
1.000000 1.700000 0
1.100000 1.700000 0
1.200000 1.700000 0
1.300000 1.700000 0
1.400000 1.700000 0
1.500000 1.700000 0
1.600000 1.700000 0
1.700000 1.700000 0
1.800000 1.700000 0
1.900000 1.700000 0
2.000000 1.700000 0
0.000000 1.800000 0
0.100000 1.800000 0
0.200000 1.800000 0
0.300000 1.800000 0
0.400000 1.800000 0
0.500000 1.800000 0
0.600000 1.800000 0
0.700000 1.800000 0
0.800000 1.800000 0
0.900000 1.800000 0
1.000000 1.800000 0
1.100000 1.800000 0
1.200000 1.800000 0
1.300000 1.800000 0
1.400000 1.800000 0
1.500000 1.800000 0
1.600000 1.800000 0
1.700000 1.800000 0
1.800000 1.800000 0
1.900000 1.800000 0
2.000000 1.800000 0
0.000000 1.900000 0
0.100000 1.900000 0
0.200000 1.900000 0
0.300000 1.900000 0
0.400000 1.900000 0
0.500000 1.900000 0
0.600000 1.900000 0
0.700000 1.900000 0
0.800000 1.900000 0
0.900000 1.900000 0
1.000000 1.900000 0
1.100000 1.900000 0
1.200000 1.900000 0
1.300000 1.900000 0
1.400000 1.900000 0
1.500000 1.900000 0
1.600000 1.900000 0
1.700000 1.900000 0
1.800000 1.900000 0
1.900000 1.900000 0
2.000000 1.900000 0
0.000000 2.000000 0
0.100000 2.000000 0
0.200000 2.000000 0
0.300000 2.000000 0
0.400000 2.000000 0
0.500000 2.000000 0
0.600000 2.000000 0
0.700000 2.000000 0
0.800000 2.000000 0
0.900000 2.000000 0
1.000000 2.000000 0
1.100000 2.000000 0
1.200000 2.000000 0
1.300000 2.000000 0
1.400000 2.000000 0
1.500000 2.000000 0
1.600000 2.000000 0
1.700000 2.000000 0
1.800000 2.000000 0
1.900000 2.000000 0
2.000000 2.000000 0
POINT_DATA 441 

VECTORS velocity float
0.000000 0.000000 0
-0.000007 0.000000 0
-0.000013 0.000000 0
-0.000007 0.000000 0
0.000002 0.000000 0
0.000008 0.000000 0
0.000008 0.000000 0
0.000005 0.000000 0
0.000000 0.000000 0
-0.000003 0.000000 0
-0.000004 0.000000 0
-0.000003 0.000000 0
-0.000001 0.000000 0
0.000000 0.000000 0
0.000001 0.000000 0
0.000001 0.000000 0
0.000000 0.000000 0
0.000000 0.000000 0
-0.000000 0.000000 0
-0.000000 0.000000 0
-0.000000 0.000000 0
0.000000 -0.000014 0
0.000013 -0.000032 0
0.000033 -0.000026 0
0.000054 -0.000006 0
0.000068 0.000011 0
0.000072 0.000021 0
0.000063 0.000022 0
0.000042 0.000021 0
0.000014 0.000019 0
-0.000019 0.000020 0
-0.000052 0.000022 0
-0.000083 0.000023 0
-0.000109 0.000021 0
-0.000129 0.000018 0
-0.000143 0.000013 0
-0.000151 0.000008 0
-0.000156 0.000003 0
-0.000157 0.000001 0
-0.000156 -0.000001 0
-0.000155 -0.000001 0
-0.000155 -0.000000 0
0.000000 -0.000007 0
0.000021 -0.000042 0
0.000048 -0.000029 0
0.000067 -0.000014 0
0.000075 -0.000004 0
0.000073 0.000006 0
0.000062 0.000019 0
0.000042 0.000035 0
0.000014 0.000050 0
-0.000020 0.000062 0
-0.000057 0.000066 0
-0.000092 0.000061 0
-0.000122 0.000051 0
-0.000145 0.000037 0
-0.000160 0.000024 0
-0.000168 0.000013 0
-0.000172 0.000005 0
-0.000172 0.000000 0
-0.000171 -0.000002 0
-0.000170 -0.000001 0
-0.000170 -0.000001 0
0.000000 0.000006 0
0.000030 -0.000056 0
0.000053 -0.000054 0
0.000068 -0.000044 0
0.000077 -0.000025 0
0.000078 0.000003 0
0.000071 0.000037 0
0.000052 0.000070 0
0.000022 0.000095 0
-0.000018 0.000107 0
-0.000060 0.000106 0
-0.000099 0.000093 0
-0.000130 0.000074 0
-0.000152 0.000052 0
-0.000165 0.000032 0
-0.000171 0.000017 0
-0.000173 0.000006 0
-0.000171 -0.000000 0
-0.000169 -0.000003 0
-0.000168 -0.000002 0
-0.000167 -0.000001 0
0.000000 0.000004 0
0.000029 -0.000086 0
0.000053 -0.000088 0
0.000073 -0.000066 0
0.000089 -0.000030 0
0.000096 0.000015 0
0.000089 0.000062 0
0.000067 0.000104 0
0.000030 0.000134 0
-0.000017 0.000148 0
-0.000066 0.000143 0
-0.000108 0.000125 0
-0.000141 0.000098 0
-0.000161 0.000068 0
-0.000171 0.000041 0
-0.000174 0.000020 0
-0.000172 0.000006 0
-0.000168 -0.000002 0
-0.000164 -0.000005 0
-0.000162 -0.000003 0
-0.000162 -0.000001 0
0.000000 -0.000003 0
0.000026 -0.000119 0
0.000058 -0.000113 0
0.000086 -0.000081 0
0.000107 -0.000035 0
0.000115 0.000020 0
0.000108 0.000078 0
0.000082 0.000132 0
0.000038 0.000174 0
-0.000016 0.000194 0
-0.000071 0.000190 0
-0.000119 0.000164 0
-0.000152 0.000125 0
-0.000170 0.000084 0
-0.000176 0.000047 0
-0.000175 0.000019 0
-0.000169 0.000001 0
-0.000162 -0.000007 0
-0.000157 -0.000009 0
-0.000153 -0.000005 0
-0.000153 -0.000002 0
0.000000 -0.000002 0
0.000029 -0.000146 0
0.000065 -0.000139 0
0.000097 -0.000104 0
0.000119 -0.000053 0
0.000130 0.000013 0
0.000125 0.000089 0
0.000098 0.000165 0
0.000050 0.000225 0
-0.000012 0.000255 0
-0.000076 0.000247 0
-0.000128 0.000208 0
-0.000162 0.000152 0
-0.000177 0.000095 0
-0.000178 0.000047 0
-0.000172 0.000013 0
-0.000162 -0.000007 0
-0.000152 -0.000015 0
-0.000144 -0.000014 0
-0.000140 -0.000007 0
-0.000140 -0.000002 0
0.000000 0.000002 0
0.000031 -0.000176 0
0.000066 -0.000174 0
0.000098 -0.000137 0
0.000124 -0.000078 0
0.000139 0.000004 0
0.000138 0.000104 0
0.000112 0.000206 0
0.000061 0.000288 0
-0.000008 0.000325 0
-0.000079 0.000310 0
-0.000134 0.000252 0
-0.000166 0.000174 0
-0.000176 0.000100 0
-0.000172 0.000041 0
-0.000161 0.000002 0
-0.000147 -0.000019 0
-0.000135 -0.000025 0
-0.000126 -0.000021 0
-0.000121 -0.000009 0
-0.000121 -0.000002 0
0.000000 0.000001 0
0.000027 -0.000209 0
0.000059 -0.000210 0
0.000090 -0.000169 0
0.000117 -0.000101 0
0.000136 -0.000003 0
0.000138 0.000119 0
0.000116 0.000247 0
0.000065 0.000351 0
-0.000005 0.000397 0
-0.000076 0.000373 0
-0.000129 0.000293 0
-0.000156 0.000192 0
-0.000160 0.000100 0
-0.000152 0.000031 0
-0.000137 -0.000012 0
-0.000122 -0.000033 0
-0.000110 -0.000036 0
-0.000100 -0.000028 0
-0.000096 -0.000012 0
-0.000095 -0.000002 0
0.000000 -0.000001 0
0.000020 -0.000238 0
0.000046 -0.000240 0
0.000072 -0.000196 0
0.000095 -0.000121 0
0.000112 -0.000013 0
0.000116 0.000128 0
0.000099 0.000281 0
0.000057 0.000408 0
-0.000002 0.000464 0
-0.000061 0.000431 0
-0.000103 0.000330 0
-0.000123 0.000206 0
-0.000123 0.000096 0
-0.000113 0.000018 0
-0.000100 -0.000027 0
-0.000086 -0.000046 0
-0.000075 -0.000047 0
-0.000068 -0.000034 0
-0.000064 -0.000014 0
-0.000064 -0.000003 0
0.000000 -0.000001 0
0.000011 -0.000256 0
0.000026 -0.000259 0
0.000041 -0.000215 0
0.000055 -0.000139 0
0.000065 -0.000024 0
0.000068 0.000130 0
0.000059 0.000303 0
0.000036 0.000450 0
0.000002 0.000515 0
-0.000032 0.000475 0
-0.000056 0.000356 0
-0.000065 0.000213 0
-0.000064 0.000091 0
-0.000057 0.000007 0
-0.000048 -0.000039 0
-0.000040 -0.000057 0
-0.000033 -0.000055 0
-0.000029 -0.000039 0
-0.000026 -0.000016 0
-0.000026 -0.000003 0
0.000000 0.000000 0
0.000000 -0.000262 0
0.000002 -0.000267 0
0.000002 -0.000224 0
0.000002 -0.000147 0
0.000003 -0.000029 0
0.000003 0.000130 0
0.000004 0.000312 0
0.000005 0.000466 0
0.000006 0.000534 0
0.000007 0.000490 0
0.000008 0.000364 0
0.000009 0.000214 0
0.000010 0.000088 0
0.000011 0.000002 0
0.000011 -0.000044 0
0.000012 -0.000061 0
0.000013 -0.000058 0
0.000014 -0.000041 0
0.000014 -0.000016 0
0.000014 -0.000003 0
0.000000 0.000000 0
-0.000011 -0.000256 0
-0.000024 -0.000261 0
-0.000037 -0.000217 0
-0.000050 -0.000141 0
-0.000059 -0.000026 0
-0.000062 0.000129 0
-0.000052 0.000302 0
-0.000026 0.000449 0
0.000010 0.000514 0
0.000046 0.000473 0
0.000072 0.000354 0
0.000083 0.000211 0
0.000084 0.000089 0
0.000079 0.000005 0
0.000072 -0.000041 0
0.000065 -0.000059 0
0.000060 -0.000056 0
0.000057 -0.000040 0
0.000055 -0.000016 0
0.000055 -0.000003 0
0.000000 -0.000000 0
-0.000021 -0.000239 0
-0.000045 -0.000241 0
-0.000069 -0.000197 0
-0.000091 -0.000124 0
-0.000107 -0.000016 0
-0.000110 0.000123 0
-0.000092 0.000276 0
-0.000049 0.000404 0
0.000013 0.000461 0
0.000074 0.000428 0
0.000119 0.000327 0
0.000141 0.000202 0
0.000144 0.000092 0
0.000136 0.000014 0
0.000124 -0.000031 0
0.000113 -0.000050 0
0.000104 -0.000050 0
0.000097 -0.000036 0
0.000094 -0.000015 0
0.000094 -0.000002 0
0.000000 -0.000000 0
-0.000027 -0.000212 0
-0.000059 -0.000211 0
-0.000090 -0.000170 0
-0.000117 -0.000102 0
-0.000135 -0.000007 0
-0.000135 0.000113 0
-0.000111 0.000240 0
-0.000058 0.000343 0
0.000015 0.000391 0
0.000089 0.000367 0
0.000144 0.000288 0
0.000174 0.000187 0
0.000182 0.000094 0
0.000176 0.000025 0
0.000164 -0.000018 0
0.000152 -0.000038 0
0.000140 -0.000041 0
0.000133 -0.000031 0
0.000128 -0.000013 0
0.000128 -0.000002 0
0.000000 -0.000000 0
-0.000031 -0.000180 0
-0.000067 -0.000177 0
-0.000101 -0.000139 0
-0.000128 -0.000080 0
-0.000144 0.000001 0
-0.000141 0.000099 0
-0.000112 0.000198 0
-0.000057 0.000278 0
0.000017 0.000315 0
0.000092 0.000299 0
0.000151 0.000241 0
0.000187 0.000164 0
0.000201 0.000090 0
0.000200 0.000032 0
0.000191 -0.000006 0
0.000180 -0.000026 0
0.000170 -0.000031 0
0.000162 -0.000024 0
0.000157 -0.000010 0
0.000157 -0.000002 0
0.000000 -0.000000 0
-0.000033 -0.000145 0
-0.000071 -0.000141 0
-0.000105 -0.000109 0
-0.000130 -0.000059 0
-0.000142 0.000006 0
-0.000135 0.000081 0
-0.000105 0.000156 0
-0.000051 0.000215 0
0.000018 0.000242 0
0.000088 0.000233 0
0.000147 0.000192 0
0.000186 0.000137 0
0.000207 0.000080 0
0.000212 0.000034 0
0.000208 0.000002 0
0.000200 -0.000016 0
0.000192 -0.000022 0
0.000185 -0.000018 0
0.000181 -0.000008 0
0.000180 -0.000002 0
0.000000 -0.000000 0
-0.000034 -0.000109 0
-0.000072 -0.000106 0
-0.000105 -0.000080 0
-0.000128 -0.000042 0
-0.000137 0.000007 0
-0.000128 0.000062 0
-0.000097 0.000115 0
-0.000046 0.000156 0
0.000017 0.000175 0
0.000083 0.000170 0
0.000140 0.000143 0
0.000182 0.000105 0
0.000207 0.000065 0
0.000218 0.000030 0
0.000219 0.000005 0
0.000214 -0.000010 0
0.000208 -0.000015 0
0.000202 -0.000013 0
0.000198 -0.000006 0
0.000198 -0.000001 0
0.000000 -0.000000 0
-0.000035 -0.000073 0
-0.000075 -0.000070 0
-0.000107 -0.000052 0
-0.000129 -0.000027 0
-0.000136 0.000005 0
-0.000124 0.000041 0
-0.000093 0.000074 0
-0.000045 0.000100 0
0.000016 0.000113 0
0.000078 0.000110 0
0.000134 0.000094 0
0.000177 0.000070 0
0.000206 0.000044 0
0.000221 0.000022 0
0.000226 0.000005 0
0.000224 -0.000005 0
0.000219 -0.000010 0
0.000214 -0.000009 0
0.000210 -0.000004 0
0.000210 -0.000001 0
0.000000 -0.000000 0
-0.000035 -0.000035 0
-0.000073 -0.000033 0
-0.000105 -0.000025 0
-0.000125 -0.000013 0
-0.000131 0.000002 0
-0.000120 0.000019 0
-0.000090 0.000035 0
-0.000045 0.000047 0
0.000010 0.000052 0
0.000067 0.000051 0
0.000120 0.000044 0
0.000161 0.000033 0
0.000190 0.000021 0
0.000206 0.000010 0
0.000212 0.000002 0
0.000211 -0.000003 0
0.000206 -0.000005 0
0.000201 -0.000005 0
0.000197 -0.000002 0
0.000197 -0.000000 0
0.000000 0.000000 0
0.000000 0.000000 0
-0.000000 0.000000 0
-0.000000 0.000000 0
-0.000000 0.000000 0
-0.000000 0.000000 0
-0.000000 0.000000 0
-0.000000 0.000000 0
-0.000000 0.000000 0
-0.000000 0.000000 0
-0.000000 0.000000 0
0.000000 0.000000 0
0.000000 0.000000 0
0.000000 0.000000 0
0.000000 0.000000 0
0.000000 0.000000 0
0.000000 0.000000 0
0.000000 0.000000 0
0.000000 0.000000 0
0.000000 0.000000 0
0.000000 0.000000 0

CELL_DATA 400 
SCALARS pressure float 1 
LOOKUP_TABLE default 
0.242562
0.242592
0.242642
0.242671
0.242663
0.242632
0.242598
0.242578
0.242576
0.242588
0.242604
0.242617
0.242622
0.242622
0.242619
0.242616
0.242615
0.242615
0.242616
0.242616
0.219618
0.219640
0.219633
0.219611
0.219591
0.219585
0.219592
0.219605
0.219617
0.219623
0.219623
0.219619
0.219615
0.219612
0.219611
0.219612
0.219614
0.219615
0.219616
0.219617
0.196646
0.196615
0.196585
0.196577
0.196592
0.196615
0.196632
0.196638
0.196632
0.196621
0.196611
0.196605
0.196605
0.196608
0.196611
0.196614
0.196616
0.196617
0.196617
0.196618
0.173621
0.173593
0.173589
0.173606
0.173626
0.173638
0.173637
0.173626
0.173613
0.173605
0.173602
0.173604
0.173609
0.173613
0.173616
0.173617
0.173617
0.173617
0.173618
0.173618
0.150606
0.150609
0.150618
0.150624
0.150625
0.150620
0.150613
0.150608
0.150606
0.150608
0.150610
0.150613
0.150615
0.150616
0.150616
0.150616
0.150617
0.150617
0.150618
0.150618
0.127621
0.127626
0.127620
0.127611
0.127604
0.127604
0.127608
0.127613
0.127617
0.127618
0.127618
0.127616
0.127614
0.127614
0.127614
0.127615
0.127616
0.127617
0.127618
0.127619
0.104630
0.104621
0.104609
0.104602
0.104604
0.104611
0.104618
0.104622
0.104622
0.104619
0.104615
0.104613
0.104613
0.104613
0.104615
0.104616
0.104618
0.104618
0.104619
0.104619
0.081623
0.081615
0.081611
0.081612
0.081615
0.081619
0.081621
0.081620
0.081618
0.081615
0.081614
0.081614
0.081614
0.081616
0.081617
0.081618
0.081619
0.081619
0.081620
0.081620
0.058618
0.058620
0.058621
0.058620
0.058618
0.058617
0.058616
0.058615
0.058616
0.058616
0.058617
0.058617
0.058618
0.058618
0.058619
0.058619
0.058619
0.058620
0.058620
0.058620
0.035621
0.035626
0.035624
0.035619
0.035615
0.035614
0.035615
0.035617
0.035620
0.035621
0.035621
0.035620
0.035620
0.035619
0.035619
0.035620
0.035620
0.035621
0.035621
0.035621
0.012625
0.012626
0.012622
0.012618
0.012617
0.012618
0.012620
0.012622
0.012624
0.012624
0.012623
0.012622
0.012621
0.012621
0.012621
0.012621
0.012622
0.012622
0.012622
0.012622
-0.010376
-0.010376
-0.010377
-0.010377
-0.010377
-0.010377
-0.010376
-0.010376
-0.010375
-0.010375
-0.010376
-0.010376
-0.010376
-0.010377
-0.010377
-0.010377
-0.010377
-0.010377
-0.010377
-0.010377
-0.033377
-0.033374
-0.033373
-0.033373
-0.033374
-0.033375
-0.033375
-0.033375
-0.033374
-0.033373
-0.033373
-0.033373
-0.033374
-0.033374
-0.033375
-0.033375
-0.033376
-0.033376
-0.033376
-0.033377
-0.056375
-0.056372
-0.056371
-0.056372
-0.056373
-0.056374
-0.056374
-0.056373
-0.056371
-0.056371
-0.056370
-0.056371
-0.056372
-0.056373
-0.056374
-0.056374
-0.056375
-0.056375
-0.056376
-0.056376
-0.079373
-0.079371
-0.079371
-0.079371
-0.079372
-0.079372
-0.079371
-0.079370
-0.079369
-0.079369
-0.079369
-0.079370
-0.079370
-0.079371
-0.079372
-0.079373
-0.079374
-0.079374
-0.079375
-0.079375
-0.102372
-0.102371
-0.102370
-0.102370
-0.102369
-0.102369
-0.102369
-0.102369
-0.102368
-0.102368
-0.102368
-0.102368
-0.102369
-0.102370
-0.102371
-0.102372
-0.102372
-0.102373
-0.102374
-0.102375
-0.125372
-0.125371
-0.125369
-0.125368
-0.125368
-0.125368
-0.125368
-0.125368
-0.125368
-0.125367
-0.125367
-0.125367
-0.125368
-0.125369
-0.125370
-0.125371
-0.125371
-0.125372
-0.125373
-0.125374
-0.148371
-0.148370
-0.148368
-0.148368
-0.148367
-0.148367
-0.148367
-0.148367
-0.148367
-0.148366
-0.148366
-0.148366
-0.148367
-0.148368
-0.148369
-0.148370
-0.148371
-0.148372
-0.148372
-0.148373
-0.171370
-0.171369
-0.171368
-0.171368
-0.171367
-0.171366
-0.171366
-0.171366
-0.171365
-0.171365
-0.171365
-0.171365
-0.171366
-0.171367
-0.171368
-0.171369
-0.171370
-0.171371
-0.171372
-0.171373
-0.194369
-0.194369
-0.194368
-0.194367
-0.194366
-0.194365
-0.194365
-0.194364
-0.194364
-0.194364
-0.194364
-0.194364
-0.194365
-0.194366
-0.194367
-0.194368
-0.194369
-0.194370
-0.194371
-0.194372

SCALARS temperature float 1 
LOOKUP_TABLE default 
0.000026
0.000203
0.000546
0.001028
0.001608
0.002234
0.002844
0.003378
0.003782
0.004021
0.004086
0.003993
0.003779
0.003488
0.003165
0.002849
0.002570
0.002348
0.002195
0.002117
0.000028
0.000219
0.000587
0.001107
0.001734
0.002413
0.003076
0.003653
0.004087
0.004336
0.004393
0.004277
0.004030
0.003702
0.003345
0.002998
0.002695
0.002456
0.002291
0.002209
0.000032
0.000251
0.000675
0.001274
0.002002
0.002794
0.003569
0.004242
0.004738
0.005008
0.005043
0.004873
0.004550
0.004142
0.003707
0.003296
0.002941
0.002665
0.002477
0.002383
0.000039
0.000303
0.000816
0.001548
0.002446
0.003430
0.004399
0.005237
0.005842
0.006142
0.006131
0.005853
0.005392
0.004838
0.004271
0.003750
0.003312
0.002976
0.002750
0.002638
0.000049
0.000378
0.001023
0.001953
0.003109
0.004396
0.005676
0.006784
0.007561
0.007900
0.007794
0.007324
0.006625
0.005833
0.005057
0.004369
0.003806
0.003384
0.003105
0.002968
0.000062
0.000478
0.001302
0.002509
0.004039
0.005776
0.007536
0.009065
0.010111
0.010495
0.010209
0.009410
0.008323
0.007160
0.006074
0.005147
0.004414
0.003877
0.003529
0.003359
0.000078
0.000603
0.001654
0.003223
0.005260
0.007635
0.010101
0.012274
0.013728
0.014157
0.013557
0.012217
0.010527
0.008821
0.007302
0.006060
0.005108
0.004430
0.003999
0.003790
0.000097
0.000744
0.002057
0.004060
0.006734
0.009951
0.013397
0.016500
0.018554
0.019022
0.017910
0.015744
0.013187
0.010743
0.008672
0.007044
0.005839
0.005002
0.004479
0.004229
0.000116
0.000886
0.002467
0.004929
0.008312
0.012522
0.017190
0.021506
0.024357
0.024853
0.023015
0.019735
0.016070
0.012741
0.010043
0.008001
0.006535
0.005540
0.004927
0.004636
0.000131
0.001004
0.002814
0.005679
0.009711
0.014886
0.020799
0.026411
0.030131
0.030646
0.027991
0.023499
0.018687
0.014489
0.011208
0.008800
0.007111
0.005983
0.005295
0.004971
0.000141
0.001074
0.003023
0.006135
0.010575
0.016379
0.023139
0.029663
0.034004
0.034538
0.031304
0.025958
0.020363
0.015597
0.011946
0.009313
0.007487
0.006278
0.005545
0.005200
0.000142
0.001085
0.003051
0.006186
0.010653
0.016489
0.023288
0.029861
0.034253
0.034803
0.031560
0.026193
0.020578
0.015790
0.012117
0.009464
0.007620
0.006397
0.005655
0.005304
0.000136
0.001035
0.002897
0.005834
0.009951
0.015221
0.021246
0.026993
0.030844
0.031414
0.028738
0.024191
0.019320
0.015060
0.011715
0.009248
0.007507
0.006338
0.005622
0.005281
0.000124
0.000939
0.002609
0.005194
0.008722
0.013096
0.017941
0.022452
0.025477
0.026056
0.024202
0.020856
0.017106
0.013680
0.010880
0.008741
0.007190
0.006127
0.005467
0.005150
0.000108
0.000821
0.002262
0.004441
0.007328
0.010778
0.014466
0.017805
0.020054
0.020624
0.019513
0.017281
0.014618
0.012044
0.009833
0.008070
0.006747
0.005816
0.005228
0.004942
0.000092
0.000704
0.001923
0.003727
0.006048
0.008730
0.011502
0.013953
0.015625
0.016172
0.015584
0.014172
0.012351
0.010478
0.008780
0.007364
0.006261
0.005464
0.004949
0.004697
0.000079
0.000603
0.001637
0.003138
0.005023
0.007143
0.009277
0.011136
0.012428
0.012946
0.012676
0.011790
0.010540
0.009170
0.007861
0.006722
0.005804
0.005123
0.004675
0.004452
0.000068
0.000527
0.001422
0.002706
0.004288
0.006034
0.007761
0.009255
0.010315
0.010805
0.010711
0.010133
0.009236
0.008193
0.007150
0.006209
0.005428
0.004836
0.004440
0.004241
0.000062
0.000477
0.001283
0.002428
0.003825
0.005348
0.006840
0.008127
0.009057
0.009527
0.009521
0.009108
0.008408
0.007555
0.006674
0.005856
0.005164
0.004631
0.004271
0.004088
0.000058
0.000452
0.001214
0.002293
0.003602
0.005022
0.006407
0.007602
0.008473
0.008932
0.008963
0.008621
0.008007
0.007241
0.006434
0.005676
0.005027
0.004523
0.004181
0.004008


SCALARS Species_1 float 1 
LOOKUP_TABLE default 
0.000562
0.001680
0.002783
0.003861
0.004905
0.005905
0.006852
0.007739
0.008557
0.009302
0.009969
0.010556
0.011062
0.011491
0.011844
0.012128
0.012347
0.012505
0.012609
0.012659
0.000561
0.001677
0.002778
0.003855
0.004897
0.005895
0.006841
0.007727
0.008544
0.009288
0.009954
0.010540
0.011046
0.011474
0.011828
0.012111
0.012330
0.012488
0.012592
0.012642
0.000559
0.001672
0.002771
0.003844
0.004883
0.005879
0.006822
0.007705
0.008521
0.009262
0.009927
0.010511
0.011016
0.011443
0.011796
0.012079
0.012297
0.012456
0.012559
0.012610
0.000557
0.001665
0.002758
0.003827
0.004862
0.005853
0.006792
0.007672
0.008483
0.009222
0.009884
0.010466
0.010969
0.011394
0.011746
0.012028
0.012245
0.012403
0.012506
0.012557
0.000553
0.001655
0.002741
0.003803
0.004830
0.005815
0.006749
0.007622
0.008429
0.009164
0.009821
0.010400
0.010899
0.011322
0.011672
0.011952
0.012169
0.012326
0.012428
0.012478
0.000548
0.001640
0.002716
0.003769
0.004787
0.005763
0.006688
0.007554
0.008354
0.009082
0.009734
0.010307
0.010802
0.011222
0.011568
0.011846
0.012061
0.012217
0.012318
0.012368
0.000542
0.001620
0.002684
0.003723
0.004730
0.005694
0.006608
0.007464
0.008254
0.008973
0.009617
0.010184
0.010673
0.011088
0.011430
0.011705
0.011917
0.012072
0.012172
0.012222
0.000533
0.001595
0.002643
0.003666
0.004657
0.005607
0.006507
0.007349
0.008127
0.008835
0.009469
0.010027
0.010509
0.010917
0.011254
0.011525
0.011734
0.011886
0.011985
0.012034
0.000523
0.001565
0.002592
0.003596
0.004568
0.005500
0.006382
0.007208
0.007971
0.008666
0.009287
0.009834
0.010307
0.010707
0.011038
0.011304
0.011509
0.011659
0.011756
0.011804
0.000511
0.001529
0.002533
0.003514
0.004464
0.005374
0.006236
0.007043
0.007788
0.008466
0.009073
0.009607
0.010069
0.010460
0.010783
0.011043
0.011244
0.011391
0.011486
0.011533
0.000498
0.001489
0.002466
0.003421
0.004345
0.005231
0.006070
0.006855
0.007580
0.008239
0.008830
0.009349
0.009799
0.010179
0.010494
0.010748
0.010944
0.011087
0.011180
0.011226
0.000483
0.001444
0.002392
0.003319
0.004215
0.005075
0.005888
0.006649
0.007352
0.007991
0.008564
0.009068
0.009504
0.009873
0.010179
0.010425
0.010616
0.010754
0.010845
0.010890
0.000467
0.001397
0.002315
0.003211
0.004079
0.004910
0.005696
0.006433
0.007112
0.007730
0.008284
0.008771
0.009193
0.009551
0.009847
0.010086
0.010270
0.010405
0.010493
0.010536
0.000451
0.001350
0.002236
0.003102
0.003940
0.004742
0.005502
0.006213
0.006869
0.007466
0.008000
0.008471
0.008879
0.009225
0.009511
0.009742
0.009921
0.010051
0.010136
0.010178
0.000436
0.001304
0.002159
0.002995
0.003805
0.004579
0.005313
0.005999
0.006632
0.007209
0.007725
0.008180
0.008574
0.008909
0.009186
0.009410
0.009583
0.009709
0.009791
0.009832
0.000422
0.001261
0.002088
0.002897
0.003679
0.004429
0.005138
0.005801
0.006414
0.006972
0.007471
0.007912
0.008293
0.008617
0.008886
0.009103
0.009271
0.009393
0.009473
0.009512
0.000409
0.001223
0.002027
0.002811
0.003571
0.004298
0.004986
0.005630
0.006224
0.006766
0.007251
0.007679
0.008050
0.008365
0.008626
0.008836
0.009000
0.009119
0.009197
0.009235
0.000399
0.001194
0.001977
0.002743
0.003484
0.004193
0.004864
0.005493
0.006073
0.006601
0.007075
0.007493
0.007855
0.008163
0.008418
0.008624
0.008784
0.008900
0.008976
0.009013
0.000392
0.001173
0.001943
0.002695
0.003423
0.004120
0.004780
0.005397
0.005967
0.006486
0.006952
0.007363
0.007719
0.008022
0.008273
0.008476
0.008633
0.008748
0.008822
0.008859
0.000389
0.001162
0.001925
0.002670
0.003392
0.004082
0.004736
0.005348
0.005913
0.006428
0.006889
0.007297
0.007650
0.007950
0.008199
0.008400
0.008556
0.008669
0.008744
0.008780


SCALARS Species_2 float 1 
LOOKUP_TABLE default 
0.000268
0.000795
0.001296
0.001758
0.002166
0.002512
0.002789
0.002994
0.003128
0.003196
0.003204
0.003162
0.003082
0.002976
0.002856
0.002735
0.002623
0.002530
0.002464
0.002430
0.000272
0.000808
0.001319
0.001788
0.002203
0.002555
0.002837
0.003046
0.003183
0.003252
0.003261
0.003219
0.003138
0.003030
0.002909
0.002786
0.002672
0.002578
0.002512
0.002477
0.000282
0.000836
0.001363
0.001848
0.002278
0.002641
0.002933
0.003149
0.003291
0.003363
0.003372
0.003329
0.003246
0.003135
0.003010
0.002883
0.002766
0.002670
0.002601
0.002565
0.000295
0.000876
0.001428