# vtk DataFile Version 2.0
generated by CFD-lab course output (written by Tobias Neckel) 
ASCII

DATASET STRUCTURED_GRID
DIMENSIONS  21 21 1 
POINTS 441 float

0.000000 0.000000 0
0.100000 0.000000 0
0.200000 0.000000 0
0.300000 0.000000 0
0.400000 0.000000 0
0.500000 0.000000 0
0.600000 0.000000 0
0.700000 0.000000 0
0.800000 0.000000 0
0.900000 0.000000 0
1.000000 0.000000 0
1.100000 0.000000 0
1.200000 0.000000 0
1.300000 0.000000 0
1.400000 0.000000 0
1.500000 0.000000 0
1.600000 0.000000 0
1.700000 0.000000 0
1.800000 0.000000 0
1.900000 0.000000 0
2.000000 0.000000 0
0.000000 0.100000 0
0.100000 0.100000 0
0.200000 0.100000 0
0.300000 0.100000 0
0.400000 0.100000 0
0.500000 0.100000 0
0.600000 0.100000 0
0.700000 0.100000 0
0.800000 0.100000 0
0.900000 0.100000 0
1.000000 0.100000 0
1.100000 0.100000 0
1.200000 0.100000 0
1.300000 0.100000 0
1.400000 0.100000 0
1.500000 0.100000 0
1.600000 0.100000 0
1.700000 0.100000 0
1.800000 0.100000 0
1.900000 0.100000 0
2.000000 0.100000 0
0.000000 0.200000 0
0.100000 0.200000 0
0.200000 0.200000 0
0.300000 0.200000 0
0.400000 0.200000 0
0.500000 0.200000 0
0.600000 0.200000 0
0.700000 0.200000 0
0.800000 0.200000 0
0.900000 0.200000 0
1.000000 0.200000 0
1.100000 0.200000 0
1.200000 0.200000 0
1.300000 0.200000 0
1.400000 0.200000 0
1.500000 0.200000 0
1.600000 0.200000 0
1.700000 0.200000 0
1.800000 0.200000 0
1.900000 0.200000 0
2.000000 0.200000 0
0.000000 0.300000 0
0.100000 0.300000 0
0.200000 0.300000 0
0.300000 0.300000 0
0.400000 0.300000 0
0.500000 0.300000 0
0.600000 0.300000 0
0.700000 0.300000 0
0.800000 0.300000 0
0.900000 0.300000 0
1.000000 0.300000 0
1.100000 0.300000 0
1.200000 0.300000 0
1.300000 0.300000 0
1.400000 0.300000 0
1.500000 0.300000 0
1.600000 0.300000 0
1.700000 0.300000 0
1.800000 0.300000 0
1.900000 0.300000 0
2.000000 0.300000 0
0.000000 0.400000 0
0.100000 0.400000 0
0.200000 0.400000 0
0.300000 0.400000 0
0.400000 0.400000 0
0.500000 0.400000 0
0.600000 0.400000 0
0.700000 0.400000 0
0.800000 0.400000 0
0.900000 0.400000 0
1.000000 0.400000 0
1.100000 0.400000 0
1.200000 0.400000 0
1.300000 0.400000 0
1.400000 0.400000 0
1.500000 0.400000 0
1.600000 0.400000 0
1.700000 0.400000 0
1.800000 0.400000 0
1.900000 0.400000 0
2.000000 0.400000 0
0.000000 0.500000 0
0.100000 0.500000 0
0.200000 0.500000 0
0.300000 0.500000 0
0.400000 0.500000 0
0.500000 0.500000 0
0.600000 0.500000 0
0.700000 0.500000 0
0.800000 0.500000 0
0.900000 0.500000 0
1.000000 0.500000 0
1.100000 0.500000 0
1.200000 0.500000 0
1.300000 0.500000 0
1.400000 0.500000 0
1.500000 0.500000 0
1.600000 0.500000 0
1.700000 0.500000 0
1.800000 0.500000 0
1.900000 0.500000 0
2.000000 0.500000 0
0.000000 0.600000 0
0.100000 0.600000 0
0.200000 0.600000 0
0.300000 0.600000 0
0.400000 0.600000 0
0.500000 0.600000 0
0.600000 0.600000 0
0.700000 0.600000 0
0.800000 0.600000 0
0.900000 0.600000 0
1.000000 0.600000 0
1.100000 0.600000 0
1.200000 0.600000 0
1.300000 0.600000 0
1.400000 0.600000 0
1.500000 0.600000 0
1.600000 0.600000 0
1.700000 0.600000 0
1.800000 0.600000 0
1.900000 0.600000 0
2.000000 0.600000 0
0.000000 0.700000 0
0.100000 0.700000 0
0.200000 0.700000 0
0.300000 0.700000 0
0.400000 0.700000 0
0.500000 0.700000 0
0.600000 0.700000 0
0.700000 0.700000 0
0.800000 0.700000 0
0.900000 0.700000 0
1.000000 0.700000 0
1.100000 0.700000 0
1.200000 0.700000 0
1.300000 0.700000 0
1.400000 0.700000 0
1.500000 0.700000 0
1.600000 0.700000 0
1.700000 0.700000 0
1.800000 0.700000 0
1.900000 0.700000 0
2.000000 0.700000 0
0.000000 0.800000 0
0.100000 0.800000 0
0.200000 0.800000 0
0.300000 0.800000 0
0.400000 0.800000 0
0.500000 0.800000 0
0.600000 0.800000 0
0.700000 0.800000 0
0.800000 0.800000 0
0.900000 0.800000 0
1.000000 0.800000 0
1.100000 0.800000 0
1.200000 0.800000 0
1.300000 0.800000 0
1.400000 0.800000 0
1.500000 0.800000 0
1.600000 0.800000 0
1.700000 0.800000 0
1.800000 0.800000 0
1.900000 0.800000 0
2.000000 0.800000 0
0.000000 0.900000 0
0.100000 0.900000 0
0.200000 0.900000 0
0.300000 0.900000 0
0.400000 0.900000 0
0.500000 0.900000 0
0.600000 0.900000 0
0.700000 0.900000 0
0.800000 0.900000 0
0.900000 0.900000 0
1.000000 0.900000 0
1.100000 0.900000 0
1.200000 0.900000 0
1.300000 0.900000 0
1.400000 0.900000 0
1.500000 0.900000 0
1.600000 0.900000 0
1.700000 0.900000 0
1.800000 0.900000 0
1.900000 0.900000 0
2.000000 0.900000 0
0.000000 1.000000 0
0.100000 1.000000 0
0.200000 1.000000 0
0.300000 1.000000 0
0.400000 1.000000 0
0.500000 1.000000 0
0.600000 1.000000 0
0.700000 1.000000 0
0.800000 1.000000 0
0.900000 1.000000 0
1.000000 1.000000 0
1.100000 1.000000 0
1.200000 1.000000 0
1.300000 1.000000 0
1.400000 1.000000 0
1.500000 1.000000 0
1.600000 1.000000 0
1.700000 1.000000 0
1.800000 1.000000 0
1.900000 1.000000 0
2.000000 1.000000 0
0.000000 1.100000 0
0.100000 1.100000 0
0.200000 1.100000 0
0.300000 1.100000 0
0.400000 1.100000 0
0.500000 1.100000 0
0.600000 1.100000 0
0.700000 1.100000 0
0.800000 1.100000 0
0.900000 1.100000 0
1.000000 1.100000 0
1.100000 1.100000 0
1.200000 1.100000 0
1.300000 1.100000 0
1.400000 1.100000 0
1.500000 1.100000 0
1.600000 1.100000 0
1.700000 1.100000 0
1.800000 1.100000 0
1.900000 1.100000 0
2.000000 1.100000 0
0.000000 1.200000 0
0.100000 1.200000 0
0.200000 1.200000 0
0.300000 1.200000 0
0.400000 1.200000 0
0.500000 1.200000 0
0.600000 1.200000 0
0.700000 1.200000 0
0.800000 1.200000 0
0.900000 1.200000 0
1.000000 1.200000 0
1.100000 1.200000 0
1.200000 1.200000 0
1.300000 1.200000 0
1.400000 1.200000 0
1.500000 1.200000 0
1.600000 1.200000 0
1.700000 1.200000 0
1.800000 1.200000 0
1.900000 1.200000 0
2.000000 1.200000 0
0.000000 1.300000 0
0.100000 1.300000 0
0.200000 1.300000 0
0.300000 1.300000 0
0.400000 1.300000 0
0.500000 1.300000 0
0.600000 1.300000 0
0.700000 1.300000 0
0.800000 1.300000 0
0.900000 1.300000 0
1.000000 1.300000 0
1.100000 1.300000 0
1.200000 1.300000 0
1.300000 1.300000 0
1.400000 1.300000 0
1.500000 1.300000 0
1.600000 1.300000 0
1.700000 1.300000 0
1.800000 1.300000 0
1.900000 1.300000 0
2.000000 1.300000 0
0.000000 1.400000 0
0.100000 1.400000 0
0.200000 1.400000 0
0.300000 1.400000 0
0.400000 1.400000 0
0.500000 1.400000 0
0.600000 1.400000 0
0.700000 1.400000 0
0.800000 1.400000 0
0.900000 1.400000 0
1.000000 1.400000 0
1.100000 1.400000 0
1.200000 1.400000 0
1.300000 1.400000 0
1.400000 1.400000 0
1.500000 1.400000 0
1.600000 1.400000 0
1.700000 1.400000 0
1.800000 1.400000 0
1.900000 1.400000 0
2.000000 1.400000 0
0.000000 1.500000 0
0.100000 1.500000 0
0.200000 1.500000 0
0.300000 1.500000 0
0.400000 1.500000 0
0.500000 1.500000 0
0.600000 1.500000 0
0.700000 1.500000 0
0.800000 1.500000 0
0.900000 1.500000 0
1.000000 1.500000 0
1.100000 1.500000 0
1.200000 1.500000 0
1.300000 1.500000 0
1.400000 1.500000 0
1.500000 1.500000 0
1.600000 1.500000 0
1.700000 1.500000 0
1.800000 1.500000 0
1.900000 1.500000 0
2.000000 1.500000 0
0.000000 1.600000 0
0.100000 1.600000 0
0.200000 1.600000 0
0.300000 1.600000 0
0.400000 1.600000 0
0.500000 1.600000 0
0.600000 1.600000 0
0.700000 1.600000 0
0.800000 1.600000 0
0.900000 1.600000 0
1.000000 1.600000 0
1.100000 1.600000 0
1.200000 1.600000 0
1.300000 1.600000 0
1.400000 1.600000 0
1.500000 1.600000 0
1.600000 1.600000 0
1.700000 1.600000 0
1.800000 1.600000 0
1.900000 1.600000 0
2.000000 1.600000 0
0.000000 1.700000 0
0.100000 1.700000 0
0.200000 1.700000 0
0.300000 1.700000 0
0.400000 1.700000 0
0.500000 1.700000 0
0.600000 1.700000 0
0.700000 1.700000 0
0.800000 1.700000 0
0.900000 1.700000 0
1.000000 1.700000 0
1.100000 1.700000 0
1.200000 1.700000 0
1.300000 1.700000 0
1.400000 1.700000 0
1.500000 1.700000 0
1.600000 1.700000 0
1.700000 1.700000 0
1.800000 1.700000 0
1.900000 1.700000 0
2.000000 1.700000 0
0.000000 1.800000 0
0.100000 1.800000 0
0.200000 1.800000 0
0.300000 1.800000 0
0.400000 1.800000 0
0.500000 1.800000 0
0.600000 1.800000 0
0.700000 1.800000 0
0.800000 1.800000 0
0.900000 1.800000 0
1.000000 1.800000 0
1.100000 1.800000 0
1.200000 1.800000 0
1.300000 1.800000 0
1.400000 1.800000 0
1.500000 1.800000 0
1.600000 1.800000 0
1.700000 1.800000 0
1.800000 1.800000 0
1.900000 1.800000 0
2.000000 1.800000 0
0.000000 1.900000 0
0.100000 1.900000 0
0.200000 1.900000 0
0.300000 1.900000 0
0.400000 1.900000 0
0.500000 1.900000 0
0.600000 1.900000 0
0.700000 1.900000 0
0.800000 1.900000 0
0.900000 1.900000 0
1.000000 1.900000 0
1.100000 1.900000 0
1.200000 1.900000 0
1.300000 1.900000 0
1.400000 1.900000 0
1.500000 1.900000 0
1.600000 1.900000 0
1.700000 1.900000 0
1.800000 1.900000 0
1.900000 1.900000 0
2.000000 1.900000 0
0.000000 2.000000 0
0.100000 2.000000 0
0.200000 2.000000 0
0.300000 2.000000 0
0.400000 2.000000 0
0.500000 2.000000 0
0.600000 2.000000 0
0.700000 2.000000 0
0.800000 2.000000 0
0.900000 2.000000 0
1.000000 2.000000 0
1.100000 2.000000 0
1.200000 2.000000 0
1.300000 2.000000 0
1.400000 2.000000 0
1.500000 2.000000 0
1.600000 2.000000 0
1.700000 2.000000 0
1.800000 2.000000 0
1.900000 2.000000 0
2.000000 2.000000 0
POINT_DATA 441 

VECTORS velocity float
0.000000 0.000000 0
0.000003 0.000000 0
-0.000008 0.000000 0
-0.000009 0.000000 0
-0.000003 0.000000 0
0.000004 0.000000 0
0.000006 0.000000 0
0.000004 0.000000 0
0.000001 0.000000 0
-0.000001 0.000000 0
-0.000002 0.000000 0
-0.000002 0.000000 0
-0.000001 0.000000 0
0.000000 0.000000 0
0.000000 0.000000 0
0.000000 0.000000 0
0.000000 0.000000 0
0.000000 0.000000 0
-0.000000 0.000000 0
-0.000000 0.000000 0
-0.000000 0.000000 0
0.000000 -0.000004 0
-0.000000 -0.000007 0
-0.000004 -0.000011 0
-0.000003 -0.000003 0
-0.000000 0.000007 0
0.000003 0.000011 0
0.000003 0.000009 0
0.000002 0.000003 0
0.000000 -0.000002 0
-0.000001 -0.000004 0
-0.000002 -0.000003 0
-0.000001 -0.000002 0
-0.000001 -0.000000 0
-0.000001 0.000000 0
-0.000001 0.000001 0
-0.000001 0.000000 0
-0.000001 0.000000 0
-0.000001 0.000000 0
-0.000001 0.000000 0
-0.000001 -0.000000 0
-0.000001 -0.000000 0
0.000000 -0.000008 0
-0.000003 -0.000005 0
0.000002 0.000003 0
0.000003 0.000008 0
0.000002 0.000007 0
0.000000 0.000002 0
-0.000001 -0.000003 0
-0.000002 -0.000004 0
-0.000001 -0.000004 0
-0.000000 -0.000002 0
-0.000000 0.000000 0
-0.000000 0.000001 0
-0.000001 0.000001 0
-0.000001 0.000001 0
-0.000001 0.000000 0
-0.000001 0.000000 0
-0.000001 -0.000000 0
-0.000001 -0.000000 0
-0.000001 -0.000000 0
-0.000001 -0.000000 0
-0.000001 -0.000000 0
0.000000 0.000002 0
0.000003 0.000003 0
0.000005 0.000003 0
0.000002 0.000000 0
-0.000001 -0.000004 0
-0.000002 -0.000005 0
-0.000002 -0.000003 0
-0.000000 -0.000001 0
0.000001 0.000001 0
0.000001 0.000002 0
0.000000 0.000002 0
-0.000000 0.000001 0
-0.000001 0.000001 0
-0.000001 0.000000 0
-0.000001 -0.000000 0
-0.000001 -0.000000 0
-0.000001 -0.000000 0
-0.000001 -0.000000 0
-0.000001 -0.000000 0
-0.000001 -0.000000 0
-0.000001 -0.000000 0
0.000000 0.000004 0
0.000003 0.000001 0
0.000002 -0.000003 0
-0.000000 -0.000005 0
-0.000001 -0.000003 0
-0.000001 -0.000001 0
0.000000 0.000002 0
0.000001 0.000003 0
0.000001 0.000003 0
0.000001 0.000002 0
-0.000000 0.000001 0
-0.000001 0.000000 0
-0.000001 -0.000000 0
-0.000002 -0.000000 0
-0.000001 -0.000000 0
-0.000001 -0.000000 0
-0.000001 -0.000000 0
-0.000001 -0.000000 0
-0.000001 -0.000000 0
-0.000001 -0.000000 0
-0.000001 -0.000000 0
0.000000 -0.000000 0
-0.000000 -0.000002 0
0.000000 -0.000003 0
0.000001 -0.000002 0
0.000001 0.000001 0
0.000001 0.000002 0
0.000001 0.000003 0
0.000001 0.000002 0
0.000000 0.000001 0
-0.000000 0.000001 0
-0.000001 0.000000 0
-0.000001 0.000000 0
-0.000002 -0.000000 0
-0.000002 -0.000000 0
-0.000001 -0.000000 0
-0.000001 -0.000000 0
-0.000001 -0.000000 0
-0.000001 -0.000000 0
-0.000001 -0.000000 0
-0.000001 -0.000000 0
-0.000001 -0.000000 0
0.000000 -0.000001 0
-0.000001 -0.000002 0
0.000001 -0.000001 0
0.000003 0.000000 0
0.000002 0.000001 0
0.000001 0.000000 0
0.000001 0.000000 0
0.000001 0.000000 0
0.000000 0.000001 0
-0.000000 0.000001 0
-0.000001 0.000001 0
-0.000002 0.000001 0
-0.000002 0.000001 0
-0.000002 0.000000 0
-0.000002 0.000000 0
-0.000001 -0.000000 0
-0.000001 -0.000000 0
-0.000001 -0.000000 0
-0.000001 -0.000000 0
-0.000001 -0.000000 0
-0.000001 -0.000000 0
0.000000 0.000001 0
-0.000000 -0.000001 0
0.000002 -0.000000 0
0.000003 -0.000001 0
0.000002 -0.000002 0
0.000001 -0.000002 0
0.000001 -0.000001 0
0.000001 0.000001 0
0.000001 0.000003 0
-0.000000 0.000004 0
-0.000001 0.000003 0
-0.000002 0.000002 0
-0.000002 0.000001 0
-0.000002 0.000000 0
-0.000002 -0.000001 0
-0.000002 -0.000001 0
-0.000001 -0.000001 0
-0.000001 -0.000001 0
-0.000001 -0.000001 0
-0.000001 -0.000000 0
-0.000001 -0.000000 0
0.000000 0.000001 0
-0.000000 -0.000001 0
0.000001 -0.000002 0
0.000002 -0.000003 0
0.000002 -0.000003 0
0.000002 -0.000002 0
0.000002 0.000000 0
0.000002 0.000003 0
0.000002 0.000005 0
0.000000 0.000006 0
-0.000001 0.000005 0
-0.000003 0.000003 0
-0.000003 0.000000 0
-0.000002 -0.000001 0
-0.000002 -0.000001 0
-0.000001 -0.000001 0
-0.000001 -0.000001 0
-0.000001 -0.000001 0
-0.000001 -0.000001 0
-0.000001 -0.000000 0
-0.000001 -0.000000 0
0.000000 -0.000000 0
-0.000001 -0.000002 0
0.000000 -0.000003 0
0.000001 -0.000003 0
0.000002 -0.000002 0
0.000002 -0.000001 0
0.000003 0.000001 0
0.000002 0.000003 0
0.000001 0.000006 0
-0.000000 0.000007 0
-0.000002 0.000005 0
-0.000003 0.000002 0
-0.000003 -0.000000 0
-0.000002 -0.000001 0
-0.000002 -0.000002 0
-0.000001 -0.000001 0
-0.000001 -0.000001 0
-0.000001 -0.000001 0
-0.000000 -0.000001 0
-0.000000 -0.000000 0
-0.000000 -0.000000 0
0.000000 -0.000001 0
-0.000001 -0.000003 0
0.000000 -0.000002 0
0.000001 -0.000002 0
0.000001 -0.000002 0
0.000002 -0.000002 0
0.000002 -0.000000 0
0.000001 0.000003 0
0.000001 0.000006 0
-0.000000 0.000008 0
-0.000001 0.000006 0
-0.000002 0.000003 0
-0.000001 0.000000 0
-0.000001 -0.000001 0
-0.000001 -0.000002 0
-0.000001 -0.000002 0
-0.000000 -0.000001 0
-0.000000 -0.000001 0
-0.000000 -0.000001 0
-0.000000 -0.000001 0
-0.000000 -0.000000 0
0.000000 -0.000000 0
-0.000001 -0.000002 0
0.000000 -0.000002 0
0.000000 -0.000002 0
0.000000 -0.000003 0
0.000000 -0.000003 0
-0.000000 -0.000001 0
-0.000000 0.000002 0
-0.000000 0.000007 0
-0.000000 0.000009 0
0.000000 0.000007 0
0.000000 0.000004 0
0.000000 0.000000 0
0.000000 -0.000002 0
0.000000 -0.000002 0
0.000000 -0.000002 0
0.000000 -0.000002 0
0.000000 -0.000001 0
0.000000 -0.000001 0
0.000000 -0.000001 0
0.000000 -0.000000 0
0.000000 0.000000 0
-0.000000 -0.000002 0
-0.000000 -0.000002 0
-0.000001 -0.000003 0
-0.000001 -0.000003 0
-0.000001 -0.000003 0
-0.000002 -0.000001 0
-0.000002 0.000003 0
-0.000001 0.000007 0
0.000000 0.000009 0
0.000001 0.000007 0
0.000002 0.000003 0
0.000002 0.000000 0
0.000001 -0.000002 0
0.000001 -0.000002 0
0.000001 -0.000002 0
0.000001 -0.000001 0
0.000000 -0.000001 0
0.000000 -0.000001 0
0.000000 -0.000001 0
0.000000 -0.000000 0
0.000000 0.000000 0
-0.000000 -0.000002 0
-0.000001 -0.000002 0
-0.000001 -0.000002 0
-0.000001 -0.000002 0
-0.000002 -0.000001 0
-0.000002 0.000000 0
-0.000002 0.000003 0
-0.000002 0.000006 0
-0.000000 0.000007 0
0.000002 0.000005 0
0.000003 0.000003 0
0.000003 0.000000 0
0.000002 -0.000001 0
0.000002 -0.000002 0
0.000001 -0.000001 0
0.000001 -0.000001 0
0.000001 -0.000001 0
0.000001 -0.000001 0
0.000001 -0.000000 0
0.000001 -0.000000 0
0.000000 -0.000000 0
-0.000001 -0.000002 0
-0.000001 -0.000002 0
-0.000001 -0.000001 0
-0.000001 -0.000001 0
-0.000002 -0.000001 0
-0.000002 0.000000 0
-0.000002 0.000002 0
-0.000002 0.000004 0
-0.000000 0.000005 0
0.000002 0.000004 0
0.000003 0.000002 0
0.000003 0.000001 0
0.000003 -0.000000 0
0.000002 -0.000001 0
0.000002 -0.000001 0
0.000001 -0.000001 0
0.000001 -0.000001 0
0.000001 -0.000001 0
0.000001 -0.000000 0
0.000001 -0.000000 0
0.000000 -0.000000 0
-0.000000 -0.000001 0
-0.000001 -0.000001 0
-0.000001 -0.000001 0
-0.000001 -0.000001 0
-0.000002 -0.000001 0
-0.000002 0.000000 0
-0.000002 0.000001 0
-0.000001 0.000003 0
0.000000 0.000003 0
0.000001 0.000003 0
0.000002 0.000002 0
0.000003 0.000001 0
0.000002 -0.000000 0
0.000002 -0.000001 0
0.000002 -0.000001 0
0.000001 -0.000001 0
0.000001 -0.000001 0
0.000001 -0.000000 0
0.000001 -0.000000 0
0.000001 -0.000000 0
0.000000 0.000000 0
-0.000000 -0.000001 0
-0.000001 -0.000001 0
-0.000001 -0.000001 0
-0.000001 -0.000001 0
-0.000001 -0.000000 0
-0.000001 0.000000 0
-0.000001 0.000001 0
-0.000001 0.000002 0
0.000000 0.000002 0
0.000001 0.000002 0
0.000002 0.000001 0
0.000002 0.000001 0
0.000002 0.000000 0
0.000002 -0.000000 0
0.000002 -0.000000 0
0.000001 -0.000000 0
0.000001 -0.000000 0
0.000001 -0.000000 0
0.000001 -0.000000 0
0.000001 -0.000000 0
0.000000 -0.000000 0
-0.000000 -0.000001 0
-0.000001 -0.000001 0
-0.000001 -0.000001 0
-0.000001 -0.000000 0
-0.000001 0.000000 0
-0.000001 0.000000 0
-0.000001 0.000001 0
-0.000000 0.000001 0
0.000000 0.000001 0
0.000001 0.000001 0
0.000001 0.000001 0
0.000002 0.000000 0
0.000002 0.000000 0
0.000002 -0.000000 0
0.000002 -0.000000 0
0.000001 -0.000000 0
0.000001 -0.000000 0
0.000001 -0.000000 0
0.000001 -0.000000 0
0.000001 -0.000000 0
0.000000 -0.000000 0
-0.000000 -0.000001 0
-0.000001 -0.000000 0
-0.000001 -0.000000 0
-0.000001 -0.000000 0
-0.000001 0.000000 0
-0.000001 0.000000 0
-0.000000 0.000000 0
-0.000000 0.000001 0
0.000000 0.000001 0
0.000001 0.000001 0
0.000001 0.000001 0
0.000001 0.000000 0
0.000002 0.000000 0
0.000002 0.000000 0
0.000001 -0.000000 0
0.000001 -0.000000 0
0.000001 -0.000000 0
0.000001 -0.000000 0
0.000001 -0.000000 0
0.000001 -0.000000 0
0.000000 -0.000000 0
-0.000000 -0.000000 0
-0.000000 -0.000000 0
-0.000001 -0.000000 0
-0.000001 0.000000 0
-0.000001 0.000000 0
-0.000001 0.000000 0
-0.000000 0.000000 0
-0.000000 0.000000 0
0.000000 0.000000 0
0.000001 0.000000 0
0.000001 0.000000 0
0.000001 0.000000 0
0.000001 0.000000 0
0.000001 0.000000 0
0.000001 -0.000000 0
0.000001 -0.000000 0
0.000001 -0.000000 0
0.000001 -0.000000 0
0.000001 -0.000000 0
0.000001 -0.000000 0
0.000000 0.000000 0
0.000000 0.000000 0
-0.000000 0.000000 0
-0.000000 0.000000 0
-0.000000 0.000000 0
-0.000000 0.000000 0
0.000000 0.000000 0
0.000000 0.000000 0
0.000000 0.000000 0
0.000000 0.000000 0
0.000000 0.000000 0
-0.000000 0.000000 0
0.000000 0.000000 0
0.000000 0.000000 0
0.000000 0.000000 0
0.000000 0.000000 0
0.000000 0.000000 0
0.000000 0.000000 0
0.000000 0.000000 0
0.000000 0.000000 0
0.000000 0.000000 0

CELL_DATA 400 
SCALARS pressure float 1 
LOOKUP_TABLE default 
0.242596
0.242585
0.242617
0.242653
0.242665
0.242651
0.242626
0.242608
0.242603
0.242609
0.242617
0.242623
0.242626
0.242625
0.242624
0.242623
0.242623
0.242622
0.242622
0.242623
0.219611
0.219636
0.219641
0.219630
0.219615
0.219606
0.219608
0.219616
0.219623
0.219626
0.219627
0.219625
0.219623
0.219622
0.219622
0.219622
0.219622
0.219622
0.219622
0.219622
0.196645
0.196635
0.196610
0.196597
0.196601
0.196615
0.196629
0.196634
0.196632
0.196627
0.196622
0.196620
0.196620
0.196620
0.196621
0.196622
0.196622
0.196622
0.196623
0.196623
0.173637
0.173615
0.173604
0.173609
0.173621
0.173631
0.173634
0.173631
0.173625
0.173620
0.173618
0.173618
0.173620
0.173621
0.173622
0.173623
0.173623
0.173623
0.173623
0.173623
0.150621
0.150618
0.150621
0.150625
0.150625
0.150625
0.150623
0.150622
0.150620
0.150620
0.150620
0.150621
0.150622
0.150622
0.150623
0.150623
0.150623
0.150623
0.150623
0.150623
0.127623
0.127629
0.127628
0.127621
0.127615
0.127615
0.127618
0.127621
0.127623
0.127623
0.127623
0.127623
0.127623
0.127622
0.127622
0.127622
0.127622
0.127622
0.127622
0.127622
0.104628
0.104629
0.104623
0.104615
0.104612
0.104616
0.104621
0.104624
0.104626
0.104625
0.104624
0.104622
0.104621
0.104621
0.104621
0.104622
0.104622
0.104622
0.104622
0.104623
0.081625
0.081625
0.081621
0.081617
0.081618
0.081621
0.081624
0.081625
0.081625
0.081623
0.081622
0.081621
0.081621
0.081621
0.081622
0.081622
0.081623
0.081623
0.081623
0.081623
0.058621
0.058624
0.058624
0.058622
0.058622
0.058622
0.058622
0.058621
0.058621
0.058621
0.058621
0.058621
0.058622
0.058622
0.058623
0.058623
0.058623
0.058623
0.058623
0.058623
0.035621
0.035626
0.035626
0.035624
0.035621
0.035619
0.035618
0.035619
0.035621
0.035622
0.035623
0.035623
0.035623
0.035623
0.035622
0.035622
0.035622
0.035622
0.035622
0.035623
0.012623
0.012626
0.012625
0.012622
0.012620
0.012619
0.012619
0.012621
0.012623
0.012624
0.012624
0.012623
0.012623
0.012622
0.012622
0.012622
0.012622
0.012623
0.012623
0.012623
-0.010377
-0.010376
-0.010377
-0.010377
-0.010378
-0.010379
-0.010378
-0.010377
-0.010376
-0.010376
-0.010377
-0.010377
-0.010377
-0.010378
-0.010377
-0.010377
-0.010377
-0.010377
-0.010377
-0.010377
-0.033379
-0.033378
-0.033376
-0.033375
-0.033375
-0.033377
-0.033377
-0.033377
-0.033377
-0.033377
-0.033377
-0.033377
-0.033377
-0.033377
-0.033377
-0.033377
-0.033377
-0.033377
-0.033377
-0.033377
-0.056379
-0.056377
-0.056375
-0.056374
-0.056375
-0.056377
-0.056378
-0.056378
-0.056377
-0.056377
-0.056376
-0.056376
-0.056376
-0.056377
-0.056377
-0.056377
-0.056377
-0.056377
-0.056377
-0.056377
-0.079378
-0.079377
-0.079375
-0.079375
-0.079376
-0.079377
-0.079378
-0.079377
-0.079377
-0.079376
-0.079376
-0.079376
-0.079376
-0.079377
-0.079377
-0.079377
-0.079377
-0.079377
-0.079377
-0.079377
-0.102378
-0.102377
-0.102377
-0.102376
-0.102376
-0.102376
-0.102376
-0.102376
-0.102376
-0.102376
-0.102376
-0.102376
-0.102377
-0.102377
-0.102377
-0.102377
-0.102377
-0.102377
-0.102377
-0.102377
-0.125378
-0.125378
-0.125377
-0.125376
-0.125375
-0.125375
-0.125376
-0.125377
-0.125377
-0.125377
-0.125377
-0.125377
-0.125377
-0.125377
-0.125377
-0.125377
-0.125377
-0.125377
-0.125377
-0.125377
-0.148378
-0.148378
-0.148376
-0.148376
-0.148375
-0.148376
-0.148376
-0.148377
-0.148377
-0.148377
-0.148377
-0.148376
-0.148377
-0.148377
-0.148377
-0.148377
-0.148377
-0.148377
-0.148377
-0.148377
-0.171377
-0.171377
-0.171377
-0.171376
-0.171376
-0.171376
-0.171376
-0.171376
-0.171377
-0.171377
-0.171377
-0.171377
-0.171377
-0.171377
-0.171377
-0.171377
-0.171377
-0.171377
-0.171377
-0.171377
-0.194377
-0.194377
-0.194377
-0.194377
-0.194376
-0.194376
-0.194376
-0.194376
-0.194377
-0.194377
-0.194377
-0.194377
-0.194377
-0.194377
-0.194377
-0.194377
-0.194377
-0.194377
-0.194377
-0.194377

SCALARS temperature float 1 
LOOKUP_TABLE default 
0.000000
0.000000
0.000000
0.000000
0.000000
0.000000
0.000000
0.000000
0.000000
0.000000
0.000000
0.000000
0.000000
0.000000
0.000000
0.000000
0.000000
0.000000
0.000000
0.000000
0.000000
0.000000
0.000000
0.000000
0.000000
0.000000
0.000000
0.000001
0.000001
0.000001
0.000001
0.000000
0.000000
0.000000
0.000000
0.000000
0.000000
0.000000
0.000000
0.000000
0.000000
0.000000
0.000000
0.000000
0.000000
0.000001
0.000002
0.000003
0.000004
0.000004
0.000003
0.000002
0.000001
0.000001
0.000000
0.000000
0.000000
0.000000
0.000000
0.000000
0.000000
0.000000
0.000000
0.000001
0.000002
0.000005
0.000009
0.000014
0.000018
0.000018
0.000015
0.000010
0.000006
0.000003
0.000001
0.000000
0.000000
0.000000
0.000000
0.000000
0.000000
0.000000
0.000001
0.000003
0.000009
0.000020
0.000038
0.000058
0.000072
0.000073
0.000060
0.000041
0.000023
0.000011
0.000004
0.000001
0.000000
0.000000
0.000000
0.000000
0.000000
0.000001
0.000003
0.000011
0.000030
0.000068
0.000130
0.000200
0.000251
0.000253
0.000207
0.000138
0.000076
0.000035
0.000013
0.000004
0.000001
0.000000
0.000000
0.000000
0.000000
0.000002
0.000009
0.000030
0.000085
0.000198
0.000380
0.000592
0.000743
0.000748
0.000604
0.000396
0.000213
0.000096
0.000037
0.000012
0.000003
0.000001
0.000000
0.000000
0.000000
0.000004
0.000020
0.000070
0.000201
0.000478
0.000931
0.001470
0.001856
0.001861
0.001487
0.000956
0.000504
0.000222
0.000083
0.000027
0.000007
0.000002
0.000000
0.000000
0.000001
0.000008
0.000038
0.000134
0.000392
0.000946
0.001879
0.003009
0.003827
0.003829
0.003023
0.001908
0.000983
0.000423
0.000155
0.000049
0.000014
0.000003
0.000001
0.000000
0.000001
0.000012
0.000058
0.000209
0.000617
0.001513
0.003051
0.004953
0.006345
0.006341
0.004956
0.003077
0.001557
0.000659
0.000238
0.000075
0.000021
0.000005
0.000001
0.000000
0.000001
0.000015
0.000073
0.000262
0.000776
0.001917
0.003896
0.006373
0.008199
0.008190
0.006368
0.003921
0.001965
0.000824
0.000296
0.000092
0.000025
0.000006
0.000002
0.000000
0.000001
0.000015
0.000073
0.000262
0.000774
0.001904
0.003860
0.006302
0.008101
0.008095
0.006303
0.003890
0.001956
0.000823
0.000297
0.000093
0.000026
0.000006
0.000002
0.000001
0.000001
0.000013
0.000059
0.000211
0.000614
0.001490
0.002980
0.004813
0.006152
0.006153
0.004828
0.003018
0.001540
0.000658
0.000241
0.000076
0.000021
0.000005
0.000001
0.000000
0.000001
0.000008
0.000039
0.000137
0.000392
0.000934
0.001831
0.002909
0.003686
0.003693
0.002932
0.001869
0.000976
0.000427
0.000159
0.000052
0.000015
0.000004
0.000001
0.000000
0.000000
0.000005
0.000021
0.000073
0.000206
0.000479
0.000919
0.001436
0.001804
0.001812
0.001457
0.000949
0.000508
0.000228
0.000087
0.000029
0.000008
0.000002
0.000001
0.000000
0.000000
0.000002
0.000010
0.000033
0.000090
0.000206
0.000387
0.000596
0.000743
0.000748
0.000610
0.000405
0.000223
0.000103
0.000040
0.000014
0.000004
0.000001
0.000000
0.000000
0.000000
0.000001
0.000004
0.000013
0.000034
0.000076
0.000140
0.000213
0.000264
0.000267
0.000220
0.000149
0.000084
0.000040
0.000016
0.000006
0.000002
0.000000
0.000000
0.000000
0.000000
0.000000
0.000001
0.000004
0.000011
0.000025
0.000045
0.000068
0.000084
0.000085
0.000071
0.000049
0.000028
0.000014
0.000006
0.000002
0.000001
0.000000
0.000000
0.000000
0.000000
0.000000
0.000000
0.000001
0.000004
0.000008
0.000014
0.000021
0.000026
0.000027
0.000022
0.000016
0.000009
0.000005
0.000002
0.000001
0.000000
0.000000
0.000000
0.000000
0.000000
0.000000
0.000000
0.000001
0.000001
0.000003
0.000006
0.000009
0.000011
0.000011
0.000009
0.000007
0.000004
0.000002
0.000001
0.000000
0.000000
0.000000
0.000000
0.000000


SCALARS Species_1 float 1 
LOOKUP_TABLE default 
0.000004
0.000018
0.000046
0.000109
0.000234
0.000465
0.000847
0.001414
0.002157
0.003001
0.003806
0.004395
0.004624
0.004434
0.003885
0.003119
0.002310
0.001606
0.001100
0.000838
0.000007
0.000027
0.000071
0.000165
0.000354
0.000697
0.001261
0.002090
0.003168
0.004386
0.005537
0.006370
0.006681
0.006393
0.005591
0.004485
0.003322
0.002311
0.001587
0.001212
0.000012
0.000047
0.000122
0.000281
0.000597
0.001168
0.002100
0.003462
0.005221
0.007195
0.009045
0.010369
0.010842
0.010348
0.009033
0.007235
0.005354
0.003725
0.002560
0.001959
0.000020
0.000078
0.000201
0.000462
0.000976
0.001898
0.003396
0.005571
0.008367
0.011485
0.014390
0.016448
0.017155
0.016341
0.014242
0.011395
0.008428
0.005864
0.004033
0.003092
0.000031
0.000120
0.000308
0.000703
0.001478
0.002861
0.005095
0.008326
0.012459
0.017045
0.021296
0.024284
0.025278
0.024042
0.020931
0.016736
0.012376
0.008614
0.005932
0.004554
0.000043
0.000169
0.000431
0.000979
0.002049
0.003951
0.007009
0.011412
0.017022
0.023223
0.028945
0.032942
0.034237
0.032526
0.028297
0.022619
0.016729
0.011653
0.008036
0.006180
0.000056
0.000217
0.000549
0.001244
0.002592
0.004980
0.008803
0.014290
0.021257
0.028932
0.035989
0.040895
0.042455
0.040304
0.035052
0.028021
0.020735
0.014459
0.009988
0.007694
0.000065
0.000252
0.000638
0.001439
0.002988
0.005722
0.010085
0.016327
0.024232
0.032918
0.040886
0.046406
0.048141
0.045686
0.039735
0.031779
0.023536
0.016434
0.011374
0.008778
0.000069
0.000268
0.000674
0.001516
0.003139
0.005993
0.010536
0.017021
0.025215
0.034204
0.042436
0.048131
0.049913
0.047370
0.041217
0.032991
0.024463
0.017111
0.011868
0.009177
0.000067
0.000258
0.000649
0.001456
0.003006
0.005726
0.010047
0.016202
0.023970
0.032480
0.040270
0.045660
0.047354
0.044960
0.039152
0.031375
0.023301
0.016331
0.011354
0.008797
0.000059
0.000227
0.000570
0.001276
0.002629
0.005000
0.008758
0.014105
0.020847
0.028231
0.034992
0.039678
0.041167
0.039118
0.034104
0.027371
0.020367
0.014307
0.009973
0.007743
0.000047
0.000183
0.000458
0.001024
0.002105
0.003997
0.006994
0.011254
0.016624
0.022506
0.027899
0.031649
0.032863
0.031262
0.027296
0.021948
0.016368
0.011528
0.008058
0.006270
0.000035
0.000135
0.000338
0.000753
0.001548
0.002935
0.005131
0.008253
0.012187
0.016501
0.020463
0.023232
0.024150
0.023008
0.020125
0.016217
0.012124
0.008564
0.006004
0.004682
0.000024
0.000092
0.000229
0.000511
0.001048
0.001986
0.003470
0.005579
0.008240
0.011161
0.013851
0.015741
0.016386
0.015639
0.013708
0.011073
0.008302
0.005882
0.004137
0.003233
0.000015
0.000058
0.000144
0.000320
0.000656
0.001242
0.002170
0.003489
0.005155
0.006987
0.008680
0.009878
0.010300
0.009849
0.008654
0.007009
0.005271
0.003747
0.002644
0.002071
0.000009
0.000033
0.000083
0.000186
0.000381
0.000721
0.001260
0.002027
0.002996
0.004064
0.005055
0.005761
0.006018
0.005768
0.005081
0.004127
0.003114
0.002221
0.001573
0.001235
0.000005
0.000018
0.000045
0.000101
0.000206
0.000390
0.000682
0.001098
0.001624
0.002206
0.002748
0.003137
0.003284
0.003156
0.002787
0.002271
0.001719
0.001231
0.000875
0.000689
0.000002
0.000009
0.000023
0.000051
0.000105
0.000199
0.000348
0.000560
0.000830
0.001129
0.001408
0.001611
0.001691
0.001629
0.001443
0.001180
0.000897
0.000644
0.000460
0.000363
0.000001
0.000005
0.000011
0.000025
0.000052
0.000099
0.000174
0.000280
0.000416
0.000566
0.000708
0.000812
0.000855
0.000826
0.000735
0.000603
0.000460
0.000332
0.000238
0.000188
0.000001
0.000003
0.000007
0.000015
0.000030
0.000057
0.000101
0.000163
0.000242
0.000331
0.000415
0.000478
0.000504
0.000489
0.000436
0.000359
0.000275
0.000199
0.000143
0.000113


SCALARS Species_2 float 1 
LOOKUP_TABLE default 
0.000006
0.000017
0.000029
0.000040
0.000048
0.000052
0.000050
0.000045
0.000036
0.000027
0.000018
0.000012
0.000007
0.000004
0.000002
0.000001
0.000000
0.000000
0.000000
0.000000
0.000013
0.000039
0.000064
0.000088
0.000105
0.000112
0.000109
0.000097
0.000078
0.000058
0.000039
0.000025
0.000014
0.000008
0.000004
0.000002
0.000001
0.000000
0.000000
0.000000
0.000033
0.000098
0.000163
0.000221
0.000264
0.000282
0.000273
0.000241
0.000194
0.000144
0.000098
0.000061
0.000036
0.000019
0.000010