# vtk DataFile Version 2.0
generated by CFD-lab course output (written by Tobias Neckel) 
ASCII

DATASET STRUCTURED_GRID
DIMENSIONS  21 21 1 
POINTS 441 float

0.000000 0.000000 0
0.100000 0.000000 0
0.200000 0.000000 0
0.300000 0.000000 0
0.400000 0.000000 0
0.500000 0.000000 0
0.600000 0.000000 0
0.700000 0.000000 0
0.800000 0.000000 0
0.900000 0.000000 0
1.000000 0.000000 0
1.100000 0.000000 0
1.200000 0.000000 0
1.300000 0.000000 0
1.400000 0.000000 0
1.500000 0.000000 0
1.600000 0.000000 0
1.700000 0.000000 0
1.800000 0.000000 0
1.900000 0.000000 0
2.000000 0.000000 0
0.000000 0.100000 0
0.100000 0.100000 0
0.200000 0.100000 0
0.300000 0.100000 0
0.400000 0.100000 0
0.500000 0.100000 0
0.600000 0.100000 0
0.700000 0.100000 0
0.800000 0.100000 0
0.900000 0.100000 0
1.000000 0.100000 0
1.100000 0.100000 0
1.200000 0.100000 0
1.300000 0.100000 0
1.400000 0.100000 0
1.500000 0.100000 0
1.600000 0.100000 0
1.700000 0.100000 0
1.800000 0.100000 0
1.900000 0.100000 0
2.000000 0.100000 0
0.000000 0.200000 0
0.100000 0.200000 0
0.200000 0.200000 0
0.300000 0.200000 0
0.400000 0.200000 0
0.500000 0.200000 0
0.600000 0.200000 0
0.700000 0.200000 0
0.800000 0.200000 0
0.900000 0.200000 0
1.000000 0.200000 0
1.100000 0.200000 0
1.200000 0.200000 0
1.300000 0.200000 0
1.400000 0.200000 0
1.500000 0.200000 0
1.600000 0.200000 0
1.700000 0.200000 0
1.800000 0.200000 0
1.900000 0.200000 0
2.000000 0.200000 0
0.000000 0.300000 0
0.100000 0.300000 0
0.200000 0.300000 0
0.300000 0.300000 0
0.400000 0.300000 0
0.500000 0.300000 0
0.600000 0.300000 0
0.700000 0.300000 0
0.800000 0.300000 0
0.900000 0.300000 0
1.000000 0.300000 0
1.100000 0.300000 0
1.200000 0.300000 0
1.300000 0.300000 0
1.400000 0.300000 0
1.500000 0.300000 0
1.600000 0.300000 0
1.700000 0.300000 0
1.800000 0.300000 0
1.900000 0.300000 0
2.000000 0.300000 0
0.000000 0.400000 0
0.100000 0.400000 0
0.200000 0.400000 0
0.300000 0.400000 0
0.400000 0.400000 0
0.500000 0.400000 0
0.600000 0.400000 0
0.700000 0.400000 0
0.800000 0.400000 0
0.900000 0.400000 0
1.000000 0.400000 0
1.100000 0.400000 0
1.200000 0.400000 0
1.300000 0.400000 0
1.400000 0.400000 0
1.500000 0.400000 0
1.600000 0.400000 0
1.700000 0.400000 0
1.800000 0.400000 0
1.900000 0.400000 0
2.000000 0.400000 0
0.000000 0.500000 0
0.100000 0.500000 0
0.200000 0.500000 0
0.300000 0.500000 0
0.400000 0.500000 0
0.500000 0.500000 0
0.600000 0.500000 0
0.700000 0.500000 0
0.800000 0.500000 0
0.900000 0.500000 0
1.000000 0.500000 0
1.100000 0.500000 0
1.200000 0.500000 0
1.300000 0.500000 0
1.400000 0.500000 0
1.500000 0.500000 0
1.600000 0.500000 0
1.700000 0.500000 0
1.800000 0.500000 0
1.900000 0.500000 0
2.000000 0.500000 0
0.000000 0.600000 0
0.100000 0.600000 0
0.200000 0.600000 0
0.300000 0.600000 0
0.400000 0.600000 0
0.500000 0.600000 0
0.600000 0.600000 0
0.700000 0.600000 0
0.800000 0.600000 0
0.900000 0.600000 0
1.000000 0.600000 0
1.100000 0.600000 0
1.200000 0.600000 0
1.300000 0.600000 0
1.400000 0.600000 0
1.500000 0.600000 0
1.600000 0.600000 0
1.700000 0.600000 0
1.800000 0.600000 0
1.900000 0.600000 0
2.000000 0.600000 0
0.000000 0.700000 0
0.100000 0.700000 0
0.200000 0.700000 0
0.300000 0.700000 0
0.400000 0.700000 0
0.500000 0.700000 0
0.600000 0.700000 0
0.700000 0.700000 0
0.800000 0.700000 0
0.900000 0.700000 0
1.000000 0.700000 0
1.100000 0.700000 0
1.200000 0.700000 0
1.300000 0.700000 0
1.400000 0.700000 0
1.500000 0.700000 0
1.600000 0.700000 0
1.700000 0.700000 0
1.800000 0.700000 0
1.900000 0.700000 0
2.000000 0.700000 0
0.000000 0.800000 0
0.100000 0.800000 0
0.200000 0.800000 0
0.300000 0.800000 0
0.400000 0.800000 0
0.500000 0.800000 0
0.600000 0.800000 0
0.700000 0.800000 0
0.800000 0.800000 0
0.900000 0.800000 0
1.000000 0.800000 0
1.100000 0.800000 0
1.200000 0.800000 0
1.300000 0.800000 0
1.400000 0.800000 0
1.500000 0.800000 0
1.600000 0.800000 0
1.700000 0.800000 0
1.800000 0.800000 0
1.900000 0.800000 0
2.000000 0.800000 0
0.000000 0.900000 0
0.100000 0.900000 0
0.200000 0.900000 0
0.300000 0.900000 0
0.400000 0.900000 0
0.500000 0.900000 0
0.600000 0.900000 0
0.700000 0.900000 0
0.800000 0.900000 0
0.900000 0.900000 0
1.000000 0.900000 0
1.100000 0.900000 0
1.200000 0.900000 0
1.300000 0.900000 0
1.400000 0.900000 0
1.500000 0.900000 0
1.600000 0.900000 0
1.700000 0.900000 0
1.800000 0.900000 0
1.900000 0.900000 0
2.000000 0.900000 0
0.000000 1.000000 0
0.100000 1.000000 0
0.200000 1.000000 0
0.300000 1.000000 0
0.400000 1.000000 0
0.500000 1.000000 0
0.600000 1.000000 0
0.700000 1.000000 0
0.800000 1.000000 0
0.900000 1.000000 0
1.000000 1.000000 0
1.100000 1.000000 0
1.200000 1.000000 0
1.300000 1.000000 0
1.400000 1.000000 0
1.500000 1.000000 0
1.600000 1.000000 0
1.700000 1.000000 0
1.800000 1.000000 0
1.900000 1.000000 0
2.000000 1.000000 0
0.000000 1.100000 0
0.100000 1.100000 0
0.200000 1.100000 0
0.300000 1.100000 0
0.400000 1.100000 0
0.500000 1.100000 0
0.600000 1.100000 0
0.700000 1.100000 0
0.800000 1.100000 0
0.900000 1.100000 0
1.000000 1.100000 0
1.100000 1.100000 0
1.200000 1.100000 0
1.300000 1.100000 0
1.400000 1.100000 0
1.500000 1.100000 0
1.600000 1.100000 0
1.700000 1.100000 0
1.800000 1.100000 0
1.900000 1.100000 0
2.000000 1.100000 0
0.000000 1.200000 0
0.100000 1.200000 0
0.200000 1.200000 0
0.300000 1.200000 0
0.400000 1.200000 0
0.500000 1.200000 0
0.600000 1.200000 0
0.700000 1.200000 0
0.800000 1.200000 0
0.900000 1.200000 0
1.000000 1.200000 0
1.100000 1.200000 0
1.200000 1.200000 0
1.300000 1.200000 0
1.400000 1.200000 0
1.500000 1.200000 0
1.600000 1.200000 0
1.700000 1.200000 0
1.800000 1.200000 0
1.900000 1.200000 0
2.000000 1.200000 0
0.000000 1.300000 0
0.100000 1.300000 0
0.200000 1.300000 0
0.300000 1.300000 0
0.400000 1.300000 0
0.500000 1.300000 0
0.600000 1.300000 0
0.700000 1.300000 0
0.800000 1.300000 0
0.900000 1.300000 0
1.000000 1.300000 0
1.100000 1.300000 0
1.200000 1.300000 0
1.300000 1.300000 0
1.400000 1.300000 0
1.500000 1.300000 0
1.600000 1.300000 0
1.700000 1.300000 0
1.800000 1.300000 0
1.900000 1.300000 0
2.000000 1.300000 0
0.000000 1.400000 0
0.100000 1.400000 0
0.200000 1.400000 0
0.300000 1.400000 0
0.400000 1.400000 0
0.500000 1.400000 0
0.600000 1.400000 0
0.700000 1.400000 0
0.800000 1.400000 0
0.900000 1.400000 0
1.000000 1.400000 0
1.100000 1.400000 0
1.200000 1.400000 0
1.300000 1.400000 0
1.400000 1.400000 0
1.500000 1.400000 0
1.600000 1.400000 0
1.700000 1.400000 0
1.800000 1.400000 0
1.900000 1.400000 0
2.000000 1.400000 0
0.000000 1.500000 0
0.100000 1.500000 0
0.200000 1.500000 0
0.300000 1.500000 0
0.400000 1.500000 0
0.500000 1.500000 0
0.600000 1.500000 0
0.700000 1.500000 0
0.800000 1.500000 0
0.900000 1.500000 0
1.000000 1.500000 0
1.100000 1.500000 0
1.200000 1.500000 0
1.300000 1.500000 0
1.400000 1.500000 0
1.500000 1.500000 0
1.600000 1.500000 0
1.700000 1.500000 0
1.800000 1.500000 0
1.900000 1.500000 0
2.000000 1.500000 0
0.000000 1.600000 0
0.100000 1.600000 0
0.200000 1.600000 0
0.300000 1.600000 0
0.400000 1.600000 0
0.500000 1.600000 0
0.600000 1.600000 0
0.700000 1.600000 0
0.800000 1.600000 0
0.900000 1.600000 0
1.000000 1.600000 0
1.100000 1.600000 0
1.200000 1.600000 0
1.300000 1.600000 0
1.400000 1.600000 0
1.500000 1.600000 0
1.600000 1.600000 0
1.700000 1.600000 0
1.800000 1.600000 0
1.900000 1.600000 0
2.000000 1.600000 0
0.000000 1.700000 0
0.100000 1.700000 0
0.200000 1.700000 0
0.300000 1.700000 0
0.400000 1.700000 0
0.500000 1.700000 0
0.600000 1.700000 0
0.700000 1.700000 0
0.800000 1.700000 0
0.900000 1.700000 0
1.000000 1.700000 0
1.100000 1.700000 0
1.200000 1.700000 0
1.300000 1.700000 0
1.400000 1.700000 0
1.500000 1.700000 0
1.600000 1.700000 0
1.700000 1.700000 0
1.800000 1.700000 0
1.900000 1.700000 0
2.000000 1.700000 0
0.000000 1.800000 0
0.100000 1.800000 0
0.200000 1.800000 0
0.300000 1.800000 0
0.400000 1.800000 0
0.500000 1.800000 0
0.600000 1.800000 0
0.700000 1.800000 0
0.800000 1.800000 0
0.900000 1.800000 0
1.000000 1.800000 0
1.100000 1.800000 0
1.200000 1.800000 0
1.300000 1.800000 0
1.400000 1.800000 0
1.500000 1.800000 0
1.600000 1.800000 0
1.700000 1.800000 0
1.800000 1.800000 0
1.900000 1.800000 0
2.000000 1.800000 0
0.000000 1.900000 0
0.100000 1.900000 0
0.200000 1.900000 0
0.300000 1.900000 0
0.400000 1.900000 0
0.500000 1.900000 0
0.600000 1.900000 0
0.700000 1.900000 0
0.800000 1.900000 0
0.900000 1.900000 0
1.000000 1.900000 0
1.100000 1.900000 0
1.200000 1.900000 0
1.300000 1.900000 0
1.400000 1.900000 0
1.500000 1.900000 0
1.600000 1.900000 0
1.700000 1.900000 0
1.800000 1.900000 0
1.900000 1.900000 0
2.000000 1.900000 0
0.000000 2.000000 0
0.100000 2.000000 0
0.200000 2.000000 0
0.300000 2.000000 0
0.400000 2.000000 0
0.500000 2.000000 0
0.600000 2.000000 0
0.700000 2.000000 0
0.800000 2.000000 0
0.900000 2.000000 0
1.000000 2.000000 0
1.100000 2.000000 0
1.200000 2.000000 0
1.300000 2.000000 0
1.400000 2.000000 0
1.500000 2.000000 0
1.600000 2.000000 0
1.700000 2.000000 0
1.800000 2.000000 0
1.900000 2.000000 0
2.000000 2.000000 0
POINT_DATA 441 

VECTORS velocity float
0.000000 0.000000 0
0.000009 0.000000 0
0.000007 0.000000 0
0.000000 0.000000 0
-0.000005 0.000000 0
-0.000007 0.000000 0
-0.000004 0.000000 0
-0.000000 0.000000 0
0.000003 0.000000 0
0.000004 0.000000 0
0.000003 0.000000 0
0.000001 0.000000 0
-0.000000 0.000000 0
-0.000001 0.000000 0
-0.000001 0.000000 0
-0.000001 0.000000 0
-0.000000 0.000000 0
0.000000 0.000000 0
0.000000 0.000000 0
-0.000000 0.000000 0
-0.000000 0.000000 0
0.000000 0.000010 0
0.000007 0.000009 0
0.000007 -0.000000 0
0.000003 -0.000011 0
0.000001 -0.000015 0
0.000000 -0.000011 0
0.000001 -0.000001 0
0.000002 0.000008 0
0.000001 0.000012 0
-0.000002 0.000012 0
-0.000006 0.000008 0
-0.000010 0.000003 0
-0.000013 -0.000000 0
-0.000015 -0.000002 0
-0.000016 -0.000002 0
-0.000016 -0.000001 0
-0.000016 -0.000000 0
-0.000016 0.000000 0
-0.000016 0.000000 0
-0.000015 -0.000000 0
-0.000015 -0.000000 0
0.000000 -0.000000 0
-0.000001 -0.000005 0
-0.000001 -0.000011 0
0.000002 -0.000009 0
0.000006 -0.000001 0
0.000008 0.000007 0
0.000008 0.000013 0
0.000004 0.000013 0
-0.000000 0.000009 0
-0.000005 0.000005 0
-0.000009 0.000002 0
-0.000012 0.000001 0
-0.000014 0.000001 0
-0.000015 0.000002 0
-0.000016 0.000002 0
-0.000016 0.000001 0
-0.000016 0.000001 0
-0.000016 0.000000 0
-0.000016 -0.000000 0
-0.000016 -0.000000 0
-0.000016 -0.000000 0
0.000000 -0.000006 0
-0.000004 -0.000010 0
0.000002 -0.000004 0
0.000008 0.000003 0
0.000012 0.000007 0
0.000011 0.000007 0
0.000007 0.000005 0
0.000002 0.000004 0
-0.000002 0.000004 0
-0.000006 0.000006 0
-0.000010 0.000007 0
-0.000012 0.000008 0
-0.000014 0.000007 0
-0.000016 0.000006 0
-0.000017 0.000003 0
-0.000017 0.000001 0
-0.000017 0.000000 0
-0.000017 -0.000001 0
-0.000016 -0.000001 0
-0.000016 -0.000001 0
-0.000016 -0.000001 0
0.000000 0.000001 0
0.000001 -0.000005 0
0.000007 -0.000000 0
0.000010 -0.000000 0
0.000011 -0.000002 0
0.000010 -0.000003 0
0.000008 -0.000000 0
0.000005 0.000006 0
0.000001 0.000012 0
-0.000004 0.000016 0
-0.000009 0.000017 0
-0.000013 0.000014 0
-0.000017 0.000010 0
-0.000018 0.000006 0
-0.000019 0.000002 0
-0.000019 -0.000000 0
-0.000018 -0.000001 0
-0.000017 -0.000001 0
-0.000016 -0.000001 0
-0.000016 -0.000001 0
-0.000015 -0.000001 0
0.000000 0.000004 0
0.000005 -0.000006 0
0.000007 -0.000008 0
0.000009 -0.000010 0
0.000011 -0.000008 0
0.000013 -0.000002 0
0.000013 0.000007 0
0.000011 0.000016 0
0.000005 0.000022 0
-0.000003 0.000024 0
-0.000011 0.000022 0
-0.000017 0.000016 0
-0.000020 0.000010 0
-0.000021 0.000005 0
-0.000021 0.000001 0
-0.000019 -0.000001 0
-0.000018 -0.000002 0
-0.000017 -0.000002 0
-0.000016 -0.000002 0
-0.000015 -0.000001 0
-0.000015 -0.000001 0
0.000000 -0.000000 0
0.000003 -0.000014 0
0.000005 -0.000015 0
0.000010 -0.000012 0
0.000015 -0.000006 0
0.000019 0.000003 0
0.000019 0.000012 0
0.000015 0.000021 0
0.000007 0.000028 0
-0.000003 0.000030 0
-0.000013 0.000027 0
-0.000020 0.000020 0
-0.000024 0.000012 0
-0.000024 0.000006 0
-0.000022 0.000001 0
-0.000020 -0.000002 0
-0.000018 -0.000003 0
-0.000016 -0.000003 0
-0.000015 -0.000003 0
-0.000014 -0.000002 0
-0.000014 -0.000001 0
0.000000 -0.000002 0
0.000002 -0.000019 0
0.000006 -0.000017 0
0.000012 -0.000012 0
0.000018 -0.000007 0
0.000022 0.000001 0
0.000022 0.000011 0
0.000018 0.000023 0
0.000009 0.000034 0
-0.000003 0.000040 0
-0.000015 0.000037 0
-0.000023 0.000027 0
-0.000026 0.000015 0
-0.000025 0.000005 0
-0.000023 -0.000002 0
-0.000020 -0.000005 0
-0.000017 -0.000006 0
-0.000015 -0.000005 0
-0.000013 -0.000004 0
-0.000012 -0.000002 0
-0.000012 -0.000001 0
0.000000 -0.000000 0
0.000003 -0.000021 0
0.000008 -0.000019 0
0.000012 -0.000017 0
0.000017 -0.000013 0
0.000021 -0.000005 0
0.000023 0.000010 0
0.000020 0.000029 0
0.000011 0.000046 0
-0.000002 0.000054 0
-0.000015 0.000049 0
-0.000023 0.000034 0
-0.000026 0.000017 0
-0.000025 0.000003 0
-0.000021 -0.000005 0
-0.000018 -0.000009 0
-0.000014 -0.000009 0
-0.000012 -0.000007 0
-0.000011 -0.000005 0
-0.000010 -0.000003 0
-0.000010 -0.000001 0
0.000000 0.000001 0
0.000003 -0.000024 0
0.000006 -0.000025 0
0.000009 -0.000024 0
0.000013 -0.000019 0
0.000018 -0.000008 0
0.000020 0.000011 0
0.000019 0.000036 0
0.000011 0.000059 0
-0.000001 0.000068 0
-0.000013 0.000060 0
-0.000020 0.000039 0
-0.000022 0.000016 0
-0.000020 -0.000000 0
-0.000017 -0.000009 0
-0.000013 -0.000012 0
-0.000010 -0.000012 0
-0.000008 -0.000009 0
-0.000007 -0.000006 0
-0.000007 -0.000003 0
-0.000006 -0.000001 0
0.000000 -0.000000 0
0.000002 -0.000028 0
0.000003 -0.000029 0
0.000005 -0.000027 0
0.000008 -0.000021 0
0.000011 -0.000009 0
0.000012 0.000012 0
0.000012 0.000040 0
0.000007 0.000066 0
-0.000000 0.000078 0
-0.000007 0.000067 0
-0.000012 0.000042 0
-0.000012 0.000016 0
-0.000011 -0.000003 0
-0.000009 -0.000012 0
-0.000007 -0.000015 0
-0.000005 -0.000014 0
-0.000004 -0.000011 0
-0.000003 -0.000007 0
-0.000003 -0.000003 0
-0.000003 -0.000001 0
0.000000 -0.000001 0
-0.000000 -0.000029 0
-0.000000 -0.000029 0
-0.000000 -0.000027 0
-0.000000 -0.000022 0
-0.000000 -0.000010 0
-0.000000 0.000011 0
0.000000 0.000041 0
0.000000 0.000069 0
0.000001 0.000081 0
0.000001 0.000070 0
0.000001 0.000044 0
0.000001 0.000016 0
0.000002 -0.000004 0
0.000002 -0.000013 0
0.000002 -0.000016 0
0.000002 -0.000014 0
0.000002 -0.000011 0
0.000002 -0.000007 0
0.000002 -0.000003 0
0.000002 -0.000001 0
0.000000 -0.000000 0
-0.000001 -0.000027 0
-0.000004 -0.000028 0
-0.000006 -0.000026 0
-0.000009 -0.000021 0
-0.000011 -0.000010 0
-0.000012 0.000011 0
-0.000011 0.000039 0
-0.000006 0.000065 0
0.000002 0.000077 0
0.000009 0.000067 0
0.000014 0.000042 0
0.000015 0.000016 0
0.000014 -0.000003 0
0.000012 -0.000012 0
0.000010 -0.000015 0
0.000008 -0.000014 0
0.000007 -0.000011 0
0.000006 -0.000007 0
0.000006 -0.000003 0
0.000006 -0.000001 0
0.000000 0.000000 0
-0.000002 -0.000025 0
-0.000006 -0.000025 0
-0.000010 -0.000023 0
-0.000015 -0.000018 0
-0.000018 -0.000007 0
-0.000020 0.000011 0
-0.000018 0.000035 0
-0.000010 0.000057 0
0.000002 0.000066 0
0.000014 0.000058 0
0.000022 0.000038 0
0.000024 0.000016 0
0.000023 -0.000000 0
0.000020 -0.000009 0
0.000016 -0.000012 0
0.000014 -0.000012 0
0.000012 -0.000009 0
0.000010 -0.000006 0
0.000010 -0.000003 0
0.000010 -0.000001 0
0.000000 -0.000000 0
-0.000003 -0.000021 0
-0.000008 -0.000021 0
-0.000013 -0.000019 0
-0.000017 -0.000013 0
-0.000021 -0.000004 0
-0.000023 0.000011 0
-0.000019 0.000030 0
-0.000011 0.000045 0
0.000003 0.000052 0
0.000016 0.000047 0
0.000025 0.000032 0
0.000028 0.000015 0
0.000027 0.000002 0
0.000024 -0.000006 0
0.000021 -0.000009 0
0.000018 -0.000009 0
0.000015 -0.000007 0
0.000014 -0.000005 0
0.000013 -0.000003 0
0.000013 -0.000001 0
0.000000 -0.000000 0
-0.000004 -0.000017 0
-0.000008 -0.000017 0
-0.000013 -0.000014 0
-0.000017 -0.000009 0
-0.000020 -0.000001 0
-0.000021 0.000010 0
-0.000017 0.000023 0
-0.000009 0.000034 0
0.000003 0.000039 0
0.000015 0.000035 0
0.000024 0.000026 0
0.000028 0.000014 0
0.000028 0.000004 0
0.000026 -0.000002 0
0.000023 -0.000006 0
0.000020 -0.000006 0
0.000018 -0.000006 0
0.000016 -0.000004 0
0.000016 -0.000002 0
0.000015 -0.000001 0
0.000000 -0.000000 0
-0.000004 -0.000013 0
-0.000008 -0.000012 0
-0.000012 -0.000010 0
-0.000015 -0.000006 0
-0.000018 0.000000 0
-0.000018 0.000008 0
-0.000014 0.000017 0
-0.000006 0.000025 0
0.000004 0.000028 0
0.000014 0.000026 0
0.000022 0.000019 0
0.000026 0.000012 0
0.000027 0.000005 0
0.000025 -0.000000 0
0.000023 -0.000003 0
0.000021 -0.000004 0
0.000020 -0.000004 0
0.000018 -0.000003 0
0.000018 -0.000002 0
0.000017 -0.000001 0
0.000000 0.000000 0
-0.000003 -0.000009 0
-0.000007 -0.000009 0
-0.000010 -0.000007 0
-0.000013 -0.000004 0
-0.000015 0.000001 0
-0.000014 0.000006 0
-0.000010 0.000012 0
-0.000004 0.000017 0
0.000004 0.000019 0
0.000012 0.000018 0
0.000019 0.000014 0
0.000023 0.000009 0
0.000024 0.000004 0
0.000024 0.000001 0
0.000023 -0.000002 0
0.000022 -0.000002 0
0.000020 -0.000002 0
0.000019 -0.000002 0
0.000019 -0.000001 0
0.000019 -0.000001 0
0.000000 -0.000000 0
-0.000003 -0.000006 0
-0.000006 -0.000005 0
-0.000009 -0.000004 0
-0.000011 -0.000002 0
-0.000012 0.000001 0
-0.000011 0.000004 0
-0.000008 0.000008 0
-0.000002 0.000010 0
0.000004 0.000012 0
0.000011 0.000011 0
0.000017 0.000009 0
0.000021 0.000006 0
0.000023 0.000003 0
0.000023 0.000001 0
0.000023 -0.000001 0
0.000022 -0.000001 0
0.000021 -0.000001 0
0.000020 -0.000001 0
0.000020 -0.000001 0
0.000019 -0.000000 0
0.000000 -0.000000 0
-0.000003 -0.000003 0
-0.000006 -0.000003 0
-0.000008 -0.000002 0
-0.000010 -0.000001 0
-0.000010 0.000000 0
-0.000009 0.000002 0
-0.000006 0.000004 0
-0.000001 0.000005 0
0.000004 0.000005 0
0.000010 0.000005 0
0.000015 0.000004 0
0.000019 0.000003 0
0.000021 0.000002 0
0.000022 0.000000 0
0.000022 -0.000000 0
0.000021 -0.000001 0
0.000021 -0.000001 0
0.000020 -0.000001 0
0.000019 -0.000000 0
0.000019 -0.000000 0
0.000000 0.000000 0
0.000000 0.000000 0
0.000000 0.000000 0
0.000000 0.000000 0
-0.000000 0.000000 0
-0.000000 0.000000 0
-0.000000 0.000000 0
-0.000000 0.000000 0
-0.000000 0.000000 0
0.000000 0.000000 0
0.000000 0.000000 0
0.000000 0.000000 0
0.000000 0.000000 0
0.000000 0.000000 0
0.000000 0.000000 0
0.000000 0.000000 0
0.000000 0.000000 0
0.000000 0.000000 0
0.000000 0.000000 0
0.000000 0.000000 0
0.000000 0.000000 0

CELL_DATA 400 
SCALARS pressure float 1 
LOOKUP_TABLE default 
0.242647
0.242612
0.242585
0.242584
0.242604
0.242631
0.242648
0.242650
0.242639
0.242624
0.242612
0.242608
0.242610
0.242615
0.242619
0.242622
0.242623
0.242623
0.242623
0.242623
0.219605
0.219604
0.219619
0.219635
0.219642
0.219636
0.219624
0.219612
0.219607
0.219608
0.219613
0.219619
0.219622
0.219624
0.219623
0.219622
0.219622
0.219622
0.219622
0.219622
0.196607
0.196633
0.196645
0.196637
0.196618
0.196601
0.196596
0.196601
0.196613
0.196623
0.196628
0.196628
0.196625
0.196622
0.196620
0.196619
0.196620
0.196621
0.196622
0.196622
0.173630
0.173637
0.173626
0.173610
0.173599
0.173600
0.173609
0.173621
0.173628
0.173630
0.173627
0.173622
0.173619
0.173618
0.173618
0.173619
0.173621
0.173622
0.173622
0.173622
0.150628
0.150618
0.150612
0.150612
0.150617
0.150622
0.150625
0.150625
0.150622
0.150619
0.150617
0.150617
0.150618
0.150619
0.150620
0.150621
0.150622
0.150622
0.150622
0.150623
0.127612
0.127614
0.127623
0.127629
0.127629
0.127624
0.127618
0.127613
0.127612
0.127614
0.127618
0.127620
0.127622
0.127622
0.127622
0.127621
0.127621
0.127622
0.127622
0.127622
0.104613
0.104624
0.104630
0.104629
0.104622
0.104615
0.104611
0.104612
0.104615
0.104619
0.104621
0.104622
0.104622
0.104621
0.104621
0.104621
0.104621
0.104622
0.104622
0.104622
0.081621
0.081625
0.081624
0.081620
0.081617
0.081616
0.081617
0.081618
0.081620
0.081621
0.081621
0.081621
0.081620
0.081620
0.081621
0.081621
0.081622
0.081622
0.081622
0.081622
0.058622
0.058620
0.058619
0.058621
0.058622
0.058623
0.058622
0.058620
0.058619
0.058618
0.058619
0.058620
0.058621
0.058621
0.058622
0.058622
0.058622
0.058622
0.058622
0.058623
0.035619
0.035619
0.035622
0.035625
0.035626
0.035624
0.035621
0.035619
0.035618
0.035618
0.035620
0.035621
0.035622
0.035622
0.035622
0.035622
0.035622
0.035622
0.035622
0.035623
0.012620
0.012622
0.012624
0.012625
0.012624
0.012623
0.012621
0.012620
0.012621
0.012621
0.012622
0.012623
0.012623
0.012623
0.012623
0.012623
0.012623
0.012622
0.012623
0.012623
-0.010377
-0.010377
-0.010377
-0.010377
-0.010376
-0.010376
-0.010376
-0.010376
-0.010376
-0.010377
-0.010377
-0.010377
-0.010377
-0.010377
-0.010377
-0.010377
-0.010377
-0.010377
-0.010377
-0.010377
-0.033376
-0.033377
-0.033377
-0.033376
-0.033375
-0.033374
-0.033374
-0.033374
-0.033375
-0.033375
-0.033376
-0.033376
-0.033376
-0.033376
-0.033376
-0.033376
-0.033377
-0.033377
-0.033377
-0.033377
-0.056376
-0.056377
-0.056376
-0.056375
-0.056374
-0.056373
-0.056373
-0.056374
-0.056374
-0.056374
-0.056375
-0.056375
-0.056375
-0.056375
-0.056376
-0.056376
-0.056376
-0.056377
-0.056377
-0.056377
-0.079375
-0.079376
-0.079375
-0.079375
-0.079374
-0.079373
-0.079373
-0.079373
-0.079373
-0.079374
-0.079374
-0.079374
-0.079374
-0.079375
-0.079375
-0.079376
-0.079376
-0.079377
-0.079377
-0.079377
-0.102374
-0.102375
-0.102375
-0.102375
-0.102374
-0.102373
-0.102373
-0.102373
-0.102373
-0.102373
-0.102373
-0.102374
-0.102374
-0.102375
-0.102375
-0.102376
-0.102376
-0.102377
-0.102377
-0.102377
-0.125374
-0.125375
-0.125375
-0.125375
-0.125374
-0.125373
-0.125373
-0.125372
-0.125372
-0.125373
-0.125373
-0.125374
-0.125374
-0.125375
-0.125375
-0.125376
-0.125376
-0.125376
-0.125377
-0.125377
-0.148374
-0.148374
-0.148375
-0.148374
-0.148374
-0.148373
-0.148373
-0.148372
-0.148373
-0.148373
-0.148373
-0.148374
-0.148374
-0.148375
-0.148375
-0.148375
-0.148376
-0.148376
-0.148377
-0.148377
-0.171374
-0.171374
-0.171374
-0.171374
-0.171374
-0.171373
-0.171373
-0.171373
-0.171373
-0.171373
-0.171373
-0.171374
-0.171374
-0.171374
-0.171375
-0.171375
-0.171376
-0.171376
-0.171377
-0.171377
-0.194374
-0.194374
-0.194374
-0.194374
-0.194374
-0.194373
-0.194373
-0.194373
-0.194373
-0.194373
-0.194373
-0.194374
-0.194374
-0.194374
-0.194375
-0.194375
-0.194376
-0.194376
-0.194377
-0.194377

SCALARS temperature float 1 
LOOKUP_TABLE default 
0.000000
0.000005
0.000014
0.000028
0.000049
0.000075
0.000102
0.000126
0.000140
0.000142
0.000131
0.000110
0.000085
0.000061
0.000040
0.000025
0.000015
0.000009
0.000005
0.000004
0.000001
0.000007
0.000020
0.000041
0.000072
0.000110
0.000151
0.000186
0.000207
0.000209
0.000192
0.000161
0.000124
0.000088
0.000057
0.000035
0.000021
0.000012
0.000007
0.000005
0.000001
0.000012
0.000035
0.000074
0.000130
0.000200
0.000275
0.000341
0.000380
0.000384
0.000351
0.000292
0.000222
0.000155
0.000100
0.000061
0.000035
0.000020
0.000012
0.000009
0.000002
0.000022
0.000066
0.000142
0.000251
0.000391
0.000542
0.000675
0.000755
0.000760
0.000690
0.000568
0.000426
0.000293
0.000187
0.000111
0.000063
0.000036
0.000021
0.000015
0.000004
0.000041
0.000124
0.000268
0.000481
0.000758
0.001063
0.001334
0.001498
0.001505
0.001356
0.001102
0.000813
0.000550
0.000344
0.000202
0.000113
0.000063
0.000037
0.000027
0.000008
0.000073
0.000221
0.000482
0.000878
0.001404
0.001999
0.002536
0.002863
0.002871
0.002564
0.002052
0.001486
0.000985
0.000604
0.000348
0.000192
0.000105
0.000061
0.000044
0.000013
0.000119
0.000366
0.000808
0.001497
0.002438
0.003533
0.004548
0.005172
0.005179
0.004576
0.003598
0.002550
0.001652
0.000992
0.000560
0.000304
0.000164
0.000095
0.000067
0.000019
0.000180
0.000556
0.001245
0.002351
0.003910
0.005787
0.007579
0.008701
0.008699
0.007593
0.005850
0.004047
0.002559
0.001502
0.000832
0.000444
0.000236
0.000135
0.000095
0.000026
0.000246
0.000769
0.001747
0.003357
0.005704
0.008631
0.011522
0.013368
0.013351
0.011503
0.008676
0.005856
0.003614
0.002077
0.001130
0.000594
0.000313
0.000177
0.000124
0.000033
0.000305
0.000960
0.002204
0.004298
0.007435
0.011473
0.015579
0.018255
0.018218
0.015519
0.011489
0.007592
0.004593
0.002595
0.001393
0.000725
0.000379
0.000214
0.000149
0.000036
0.000340
0.001074
0.002478
0.004870
0.008509
0.013276
0.018209
0.021463
0.021414
0.018126
0.013278
0.008670
0.005189
0.002907
0.001550
0.000802
0.000418
0.000235
0.000163
0.000036
0.000340
0.001072
0.002471
0.004849
0.008460
0.013181
0.018059
0.021275
0.021232
0.017989
0.013198
0.008633
0.005175
0.002904
0.001551
0.000805
0.000420
0.000237
0.000165
0.000033
0.000305
0.000957
0.002188
0.004251
0.007324
0.011257
0.015243
0.017839
0.017816
0.015215
0.011310
0.007509
0.004566
0.002594
0.001400
0.000732
0.000385
0.000218
0.000152
0.000027
0.000247
0.000769
0.001737
0.003318
0.005603
0.008432
0.011212
0.012988
0.012985
0.011228
0.008518
0.005790
0.003602
0.002087
0.001145
0.000608
0.000323
0.000185
0.000130
0.000020
0.000183
0.000564
0.001253
0.002347
0.003874
0.005695
0.007424
0.008507
0.008516
0.007466
0.005793
0.004044
0.002583
0.001534
0.000859
0.000464
0.000251
0.000145
0.000103
0.000014
0.000126
0.000383
0.000838
0.001538
0.002482
0.003569
0.004569
0.005186
0.005200
0.004618
0.003662
0.002623
0.001721
0.001048
0.000601
0.000331
0.000182
0.000107
0.000076
0.000009
0.000082
0.000247
0.000533
0.000960
0.001519
0.002143
0.002703
0.003044
0.003058
0.002747
0.002219
0.001628
0.001095
0.000683
0.000400
0.000225
0.000126
0.000075
0.000054
0.000006
0.000053
0.000158
0.000336
0.000596
0.000927
0.001288
0.001605
0.001797
0.001809
0.001641
0.001347
0.001008
0.000692
0.000441
0.000264
0.000152
0.000086
0.000052
0.000038
0.000004
0.000036
0.000106
0.000224
0.000393
0.000604
0.000830
0.001026
0.001145
0.001155
0.001055
0.000877
0.000666
0.000466
0.000302
0.000184
0.000107
0.000062
0.000038
0.000028
0.000003
0.000028
0.000084
0.000175
0.000305
0.000466
0.000636
0.000783
0.000872
0.000881
0.000808
0.000676
0.000518
0.000366
0.000240
0.000148
0.000087
0.000051
0.000031
0.000023


SCALARS Species_1 float 1 
LOOKUP_TABLE default 
0.000270
0.000843
0.001507
0.002308
0.003274
0.004405
0.005673
0.007015
0.008342
0.009544
0.010514
0.011161
0.011430
0.011318
0.010874
0.010195
0.009409
0.008659
0.008075
0.007757
0.000290
0.000905
0.001616
0.002473
0.003503
0.004708
0.006056
0.007481
0.008887
0.010160
0.011186
0.011869
0.012152
0.012032
0.011561
0.010842
0.010011
0.009218
0.008601
0.008265
0.000325
0.001014
0.001810
0.002765
0.003912
0.005251
0.006746
0.008325
0.009880
0.011286
0.012416
0.013166
0.013475
0.013338
0.012815
0.012018
0.011100
0.010224
0.009544
0.009173
0.000372
0.001157
0.002063
0.003148
0.004449
0.005964
0.007654
0.009435
0.011187
0.012769
0.014038
0.014877
0.015218
0.015059
0.014466
0.013566
0.012531
0.011546
0.010781
0.010364
0.000423
0.001315
0.002343
0.003572
0.005042
0.006752
0.008657
0.010662
0.012632
0.014407
0.015829
0.016766
0.017144
0.016960
0.016289
0.015276
0.014113
0.013006
0.012147
0.011680
0.000472
0.001468
0.002612
0.003979
0.005611
0.007508
0.009618
0.011837
0.014014
0.015974
0.017542
0.018573
0.018986
0.018778
0.018034
0.016913
0.015628
0.014406
0.013458
0.012942
0.000512
0.001594
0.002834
0.004314
0.006078
0.008127
0.010404
0.012795
0.015140
0.017250
0.018935
0.020042
0.020483
0.020257
0.019454
0.018247
0.016864
0.015549
0.014530
0.013976
0.000539
0.001675
0.002977
0.004528
0.006376
0.008520
0.010900
0.013398
0.015847
0.018048
0.019805
0.020959
0.021418
0.021181
0.020343
0.019085
0.017642
0.016273
0.015211
0.014634
0.000547
0.001699
0.003019
0.004590
0.006460
0.008627
0.011031
0.013554
0.016025
0.018246
0.020019
0.021183
0.021646
0.021408
0.020565
0.019297
0.017845
0.016465
0.015396
0.014815
0.000535
0.001662
0.002952
0.004487
0.006312
0.008426
0.010770
0.013229
0.015637
0.017801
0.019528
0.020663
0.021116
0.020887
0.020069
0.018838
0.017427
0.016086
0.015047
0.014482
0.000505
0.001567
0.002783
0.004228
0.005946
0.007934
0.010139
0.012451
0.014714
0.016749
0.018374
0.019442
0.019871
0.019660
0.018895
0.017744
0.016422
0.015166
0.014191
0.013662
0.000459
0.001425
0.002529
0.003841
0.005400
0.007204
0.009204
0.011300
0.013353
0.015199
0.016674
0.017646
0.018039
0.017852
0.017165
0.016125
0.014932
0.013796
0.012915
0.012436
0.000402
0.001248
0.002216
0.003365
0.004730
0.006309
0.008059
0.009894
0.011691
0.013308
0.014601
0.015455
0.015804
0.015646
0.015050
0.014146
0.013106
0.012116
0.011347
0.010929
0.000340
0.001056
0.001874
0.002846
0.004000
0.005335
0.006814
0.008365
0.009886
0.011254
0.012350
0.013076
0.013376
0.013248
0.012750
0.011991
0.011116
0.010282
0.009634
0.009282
0.000278
0.000864
0.001533
0.002329
0.003272
0.004364
0.005575
0.006845
0.008090
0.009212
0.010112
0.010710
0.010961
0.010861
0.010459
0.009843
0.009130
0.008451
0.007922
0.007634
0.000221
0.000686
0.001219
0.001851
0.002602
0.003470
0.004433
0.005444
0.006436
0.007331
0.008051
0.008531
0.008735
0.008661
0.008345
0.007859
0.007295
0.006757
0.006337
0.006109
0.000172
0.000535
0.000950
0.001443
0.002029
0.002707
0.003459
0.004249
0.005025
0.005726
0.006291
0.006670
0.006834
0.006781
0.006539
0.006162
0.005725
0.005305
0.004979
0.004800
0.000134
0.000416
0.000740
0.001124
0.001581
0.002111
0.002698
0.003316
0.003924
0.004474
0.004918
0.005218
0.005350
0.005312
0.005127
0.004836
0.004496
0.004169
0.003915
0.003775
0.000108
0.000335
0.000597
0.000907
0.001276
0.001704
0.002180
0.002681
0.003174
0.003621
0.003983
0.004229
0.004339
0.004311
0.004164
0.003930
0.003656
0.003393
0.003187
0.003074
0.000095
0.000295
0.000524
0.000797
0.001122
0.001499
0.001918
0.002360
0.002795
0.003190
0.003511
0.003729
0.003828
0.003805
0.003677
0.003472
0.003231
0.003000
0.002818
0.002719


SCALARS Species_2 float 1 
LOOKUP_TABLE default 
0.000171
0.000502
0.000800
0.001046
0.001224
0.001327
0.001354
0.001312
0.001214
0.001076
0.000916
0.000750
0.000592
0.000450
0.000331
0.000235
0.000164
0.000113
0.000081
0.000066
0.000209
0.000613
0.000976
0.001275
0.001491
0.001615
0.001647
0.001596
0.001476
0.001309
0.001114
0.000912
0.000719
0.000547
0.000402
0.000287
0.000199
0.000138
0.000099
0.000080
0.000285
0.000835
0.001330
0.001735
0.002028
0.002195
0.002237
0.002166
0.002002
0.001774
0.001509
0.001235
0.000974
0.000741
0.000545
0.000388
0.000270
0.000187