# vtk DataFile Version 2.0
generated by CFD-lab course output (written by Tobias Neckel) 
ASCII

DATASET STRUCTURED_GRID
DIMENSIONS  21 21 1 
POINTS 441 float

0.000000 0.000000 0
0.100000 0.000000 0
0.200000 0.000000 0
0.300000 0.000000 0
0.400000 0.000000 0
0.500000 0.000000 0
0.600000 0.000000 0
0.700000 0.000000 0
0.800000 0.000000 0
0.900000 0.000000 0
1.000000 0.000000 0
1.100000 0.000000 0
1.200000 0.000000 0
1.300000 0.000000 0
1.400000 0.000000 0
1.500000 0.000000 0
1.600000 0.000000 0
1.700000 0.000000 0
1.800000 0.000000 0
1.900000 0.000000 0
2.000000 0.000000 0
0.000000 0.100000 0
0.100000 0.100000 0
0.200000 0.100000 0
0.300000 0.100000 0
0.400000 0.100000 0
0.500000 0.100000 0
0.600000 0.100000 0
0.700000 0.100000 0
0.800000 0.100000 0
0.900000 0.100000 0
1.000000 0.100000 0
1.100000 0.100000 0
1.200000 0.100000 0
1.300000 0.100000 0
1.400000 0.100000 0
1.500000 0.100000 0
1.600000 0.100000 0
1.700000 0.100000 0
1.800000 0.100000 0
1.900000 0.100000 0
2.000000 0.100000 0
0.000000 0.200000 0
0.100000 0.200000 0
0.200000 0.200000 0
0.300000 0.200000 0
0.400000 0.200000 0
0.500000 0.200000 0
0.600000 0.200000 0
0.700000 0.200000 0
0.800000 0.200000 0
0.900000 0.200000 0
1.000000 0.200000 0
1.100000 0.200000 0
1.200000 0.200000 0
1.300000 0.200000 0
1.400000 0.200000 0
1.500000 0.200000 0
1.600000 0.200000 0
1.700000 0.200000 0
1.800000 0.200000 0
1.900000 0.200000 0
2.000000 0.200000 0
0.000000 0.300000 0
0.100000 0.300000 0
0.200000 0.300000 0
0.300000 0.300000 0
0.400000 0.300000 0
0.500000 0.300000 0
0.600000 0.300000 0
0.700000 0.300000 0
0.800000 0.300000 0
0.900000 0.300000 0
1.000000 0.300000 0
1.100000 0.300000 0
1.200000 0.300000 0
1.300000 0.300000 0
1.400000 0.300000 0
1.500000 0.300000 0
1.600000 0.300000 0
1.700000 0.300000 0
1.800000 0.300000 0
1.900000 0.300000 0
2.000000 0.300000 0
0.000000 0.400000 0
0.100000 0.400000 0
0.200000 0.400000 0
0.300000 0.400000 0
0.400000 0.400000 0
0.500000 0.400000 0
0.600000 0.400000 0
0.700000 0.400000 0
0.800000 0.400000 0
0.900000 0.400000 0
1.000000 0.400000 0
1.100000 0.400000 0
1.200000 0.400000 0
1.300000 0.400000 0
1.400000 0.400000 0
1.500000 0.400000 0
1.600000 0.400000 0
1.700000 0.400000 0
1.800000 0.400000 0
1.900000 0.400000 0
2.000000 0.400000 0
0.000000 0.500000 0
0.100000 0.500000 0
0.200000 0.500000 0
0.300000 0.500000 0
0.400000 0.500000 0
0.500000 0.500000 0
0.600000 0.500000 0
0.700000 0.500000 0
0.800000 0.500000 0
0.900000 0.500000 0
1.000000 0.500000 0
1.100000 0.500000 0
1.200000 0.500000 0
1.300000 0.500000 0
1.400000 0.500000 0
1.500000 0.500000 0
1.600000 0.500000 0
1.700000 0.500000 0
1.800000 0.500000 0
1.900000 0.500000 0
2.000000 0.500000 0
0.000000 0.600000 0
0.100000 0.600000 0
0.200000 0.600000 0
0.300000 0.600000 0
0.400000 0.600000 0
0.500000 0.600000 0
0.600000 0.600000 0
0.700000 0.600000 0
0.800000 0.600000 0
0.900000 0.600000 0
1.000000 0.600000 0
1.100000 0.600000 0
1.200000 0.600000 0
1.300000 0.600000 0
1.400000 0.600000 0
1.500000 0.600000 0
1.600000 0.600000 0
1.700000 0.600000 0
1.800000 0.600000 0
1.900000 0.600000 0
2.000000 0.600000 0
0.000000 0.700000 0
0.100000 0.700000 0
0.200000 0.700000 0
0.300000 0.700000 0
0.400000 0.700000 0
0.500000 0.700000 0
0.600000 0.700000 0
0.700000 0.700000 0
0.800000 0.700000 0
0.900000 0.700000 0
1.000000 0.700000 0
1.100000 0.700000 0
1.200000 0.700000 0
1.300000 0.700000 0
1.400000 0.700000 0
1.500000 0.700000 0
1.600000 0.700000 0
1.700000 0.700000 0
1.800000 0.700000 0
1.900000 0.700000 0
2.000000 0.700000 0
0.000000 0.800000 0
0.100000 0.800000 0
0.200000 0.800000 0
0.300000 0.800000 0
0.400000 0.800000 0
0.500000 0.800000 0
0.600000 0.800000 0
0.700000 0.800000 0
0.800000 0.800000 0
0.900000 0.800000 0
1.000000 0.800000 0
1.100000 0.800000 0
1.200000 0.800000 0
1.300000 0.800000 0
1.400000 0.800000 0
1.500000 0.800000 0
1.600000 0.800000 0
1.700000 0.800000 0
1.800000 0.800000 0
1.900000 0.800000 0
2.000000 0.800000 0
0.000000 0.900000 0
0.100000 0.900000 0
0.200000 0.900000 0
0.300000 0.900000 0
0.400000 0.900000 0
0.500000 0.900000 0
0.600000 0.900000 0
0.700000 0.900000 0
0.800000 0.900000 0
0.900000 0.900000 0
1.000000 0.900000 0
1.100000 0.900000 0
1.200000 0.900000 0
1.300000 0.900000 0
1.400000 0.900000 0
1.500000 0.900000 0
1.600000 0.900000 0
1.700000 0.900000 0
1.800000 0.900000 0
1.900000 0.900000 0
2.000000 0.900000 0
0.000000 1.000000 0
0.100000 1.000000 0
0.200000 1.000000 0
0.300000 1.000000 0
0.400000 1.000000 0
0.500000 1.000000 0
0.600000 1.000000 0
0.700000 1.000000 0
0.800000 1.000000 0
0.900000 1.000000 0
1.000000 1.000000 0
1.100000 1.000000 0
1.200000 1.000000 0
1.300000 1.000000 0
1.400000 1.000000 0
1.500000 1.000000 0
1.600000 1.000000 0
1.700000 1.000000 0
1.800000 1.000000 0
1.900000 1.000000 0
2.000000 1.000000 0
0.000000 1.100000 0
0.100000 1.100000 0
0.200000 1.100000 0
0.300000 1.100000 0
0.400000 1.100000 0
0.500000 1.100000 0
0.600000 1.100000 0
0.700000 1.100000 0
0.800000 1.100000 0
0.900000 1.100000 0
1.000000 1.100000 0
1.100000 1.100000 0
1.200000 1.100000 0
1.300000 1.100000 0
1.400000 1.100000 0
1.500000 1.100000 0
1.600000 1.100000 0
1.700000 1.100000 0
1.800000 1.100000 0
1.900000 1.100000 0
2.000000 1.100000 0
0.000000 1.200000 0
0.100000 1.200000 0
0.200000 1.200000 0
0.300000 1.200000 0
0.400000 1.200000 0
0.500000 1.200000 0
0.600000 1.200000 0
0.700000 1.200000 0
0.800000 1.200000 0
0.900000 1.200000 0
1.000000 1.200000 0
1.100000 1.200000 0
1.200000 1.200000 0
1.300000 1.200000 0
1.400000 1.200000 0
1.500000 1.200000 0
1.600000 1.200000 0
1.700000 1.200000 0
1.800000 1.200000 0
1.900000 1.200000 0
2.000000 1.200000 0
0.000000 1.300000 0
0.100000 1.300000 0
0.200000 1.300000 0
0.300000 1.300000 0
0.400000 1.300000 0
0.500000 1.300000 0
0.600000 1.300000 0
0.700000 1.300000 0
0.800000 1.300000 0
0.900000 1.300000 0
1.000000 1.300000 0
1.100000 1.300000 0
1.200000 1.300000 0
1.300000 1.300000 0
1.400000 1.300000 0
1.500000 1.300000 0
1.600000 1.300000 0
1.700000 1.300000 0
1.800000 1.300000 0
1.900000 1.300000 0
2.000000 1.300000 0
0.000000 1.400000 0
0.100000 1.400000 0
0.200000 1.400000 0
0.300000 1.400000 0
0.400000 1.400000 0
0.500000 1.400000 0
0.600000 1.400000 0
0.700000 1.400000 0
0.800000 1.400000 0
0.900000 1.400000 0
1.000000 1.400000 0
1.100000 1.400000 0
1.200000 1.400000 0
1.300000 1.400000 0
1.400000 1.400000 0
1.500000 1.400000 0
1.600000 1.400000 0
1.700000 1.400000 0
1.800000 1.400000 0
1.900000 1.400000 0
2.000000 1.400000 0
0.000000 1.500000 0
0.100000 1.500000 0
0.200000 1.500000 0
0.300000 1.500000 0
0.400000 1.500000 0
0.500000 1.500000 0
0.600000 1.500000 0
0.700000 1.500000 0
0.800000 1.500000 0
0.900000 1.500000 0
1.000000 1.500000 0
1.100000 1.500000 0
1.200000 1.500000 0
1.300000 1.500000 0
1.400000 1.500000 0
1.500000 1.500000 0
1.600000 1.500000 0
1.700000 1.500000 0
1.800000 1.500000 0
1.900000 1.500000 0
2.000000 1.500000 0
0.000000 1.600000 0
0.100000 1.600000 0
0.200000 1.600000 0
0.300000 1.600000 0
0.400000 1.600000 0
0.500000 1.600000 0
0.600000 1.600000 0
0.700000 1.600000 0
0.800000 1.600000 0
0.900000 1.600000 0
1.000000 1.600000 0
1.100000 1.600000 0
1.200000 1.600000 0
1.300000 1.600000 0
1.400000 1.600000 0
1.500000 1.600000 0
1.600000 1.600000 0
1.700000 1.600000 0
1.800000 1.600000 0
1.900000 1.600000 0
2.000000 1.600000 0
0.000000 1.700000 0
0.100000 1.700000 0
0.200000 1.700000 0
0.300000 1.700000 0
0.400000 1.700000 0
0.500000 1.700000 0
0.600000 1.700000 0
0.700000 1.700000 0
0.800000 1.700000 0
0.900000 1.700000 0
1.000000 1.700000 0
1.100000 1.700000 0
1.200000 1.700000 0
1.300000 1.700000 0
1.400000 1.700000 0
1.500000 1.700000 0
1.600000 1.700000 0
1.700000 1.700000 0
1.800000 1.700000 0
1.900000 1.700000 0
2.000000 1.700000 0
0.000000 1.800000 0
0.100000 1.800000 0
0.200000 1.800000 0
0.300000 1.800000 0
0.400000 1.800000 0
0.500000 1.800000 0
0.600000 1.800000 0
0.700000 1.800000 0
0.800000 1.800000 0
0.900000 1.800000 0
1.000000 1.800000 0
1.100000 1.800000 0
1.200000 1.800000 0
1.300000 1.800000 0
1.400000 1.800000 0
1.500000 1.800000 0
1.600000 1.800000 0
1.700000 1.800000 0
1.800000 1.800000 0
1.900000 1.800000 0
2.000000 1.800000 0
0.000000 1.900000 0
0.100000 1.900000 0
0.200000 1.900000 0
0.300000 1.900000 0
0.400000 1.900000 0
0.500000 1.900000 0
0.600000 1.900000 0
0.700000 1.900000 0
0.800000 1.900000 0
0.900000 1.900000 0
1.000000 1.900000 0
1.100000 1.900000 0
1.200000 1.900000 0
1.300000 1.900000 0
1.400000 1.900000 0
1.500000 1.900000 0
1.600000 1.900000 0
1.700000 1.900000 0
1.800000 1.900000 0
1.900000 1.900000 0
2.000000 1.900000 0
0.000000 2.000000 0
0.100000 2.000000 0
0.200000 2.000000 0
0.300000 2.000000 0
0.400000 2.000000 0
0.500000 2.000000 0
0.600000 2.000000 0
0.700000 2.000000 0
0.800000 2.000000 0
0.900000 2.000000 0
1.000000 2.000000 0
1.100000 2.000000 0
1.200000 2.000000 0
1.300000 2.000000 0
1.400000 2.000000 0
1.500000 2.000000 0
1.600000 2.000000 0
1.700000 2.000000 0
1.800000 2.000000 0
1.900000 2.000000 0
2.000000 2.000000 0
POINT_DATA 441 

VECTORS velocity float
0.000000 0.000000 0
0.000011 0.000000 0
0.000010 0.000000 0
0.000002 0.000000 0
-0.000005 0.000000 0
-0.000008 0.000000 0
-0.000006 0.000000 0
-0.000002 0.000000 0
0.000002 0.000000 0
0.000004 0.000000 0
0.000004 0.000000 0
0.000002 0.000000 0
0.000000 0.000000 0
-0.000001 0.000000 0
-0.000001 0.000000 0
-0.000001 0.000000 0
-0.000001 0.000000 0
-0.000000 0.000000 0
-0.000000 0.000000 0
-0.000000 0.000000 0
-0.000000 0.000000 0
0.000000 0.000014 0
0.000015 0.000003 0
0.000021 -0.000006 0
0.000024 -0.000015 0
0.000024 -0.000017 0
0.000023 -0.000009 0
0.000020 0.000003 0
0.000013 0.000015 0
0.000001 0.000022 0
-0.000014 0.000023 0
-0.000031 0.000020 0
-0.000047 0.000015 0
-0.000061 0.000009 0
-0.000071 0.000005 0
-0.000078 0.000003 0
-0.000081 0.000001 0
-0.000082 0.000000 0
-0.000082 -0.000000 0
-0.000082 -0.000000 0
-0.000081 -0.000000 0
-0.000081 -0.000000 0
0.000000 0.000002 0
0.000008 -0.000019 0
0.000015 -0.000024 0
0.000025 -0.000018 0
0.000032 -0.000005 0
0.000034 0.000010 0
0.000030 0.000023 0
0.000018 0.000031 0
0.000001 0.000034 0
-0.000018 0.000033 0
-0.000037 0.000029 0
-0.000054 0.000025 0
-0.000068 0.000020 0
-0.000077 0.000015 0
-0.000084 0.000010 0
-0.000087 0.000005 0
-0.000088 0.000002 0
-0.000088 0.000000 0
-0.000087 -0.000001 0
-0.000086 -0.000001 0
-0.000086 -0.000001 0
0.000000 -0.000007 0
0.000004 -0.000033 0
0.000020 -0.000026 0
0.000034 -0.000012 0
0.000042 0.000001 0
0.000042 0.000014 0
0.000035 0.000025 0
0.000021 0.000034 0
0.000002 0.000043 0
-0.000018 0.000048 0
-0.000039 0.000048 0
-0.000057 0.000044 0
-0.000071 0.000035 0
-0.000081 0.000025 0
-0.000087 0.000016 0
-0.000089 0.000007 0
-0.000089 0.000002 0
-0.000088 -0.000001 0
-0.000086 -0.000002 0
-0.000085 -0.000001 0
-0.000085 -0.000001 0
0.000000 -0.000001 0
0.000011 -0.000039 0
0.000028 -0.000031 0
0.000041 -0.000021 0
0.000048 -0.000009 0
0.000048 0.000006 0
0.000042 0.000026 0
0.000029 0.000047 0
0.000009 0.000065 0
-0.000015 0.000075 0
-0.000040 0.000074 0
-0.000062 0.000065 0
-0.000078 0.000049 0
-0.000087 0.000032 0
-0.000092 0.000018 0
-0.000092 0.000007 0
-0.000090 -0.000000 0
-0.000087 -0.000003 0
-0.000084 -0.000004 0
-0.000083 -0.000002 0
-0.000082 -0.000001 0
0.000000 0.000004 0
0.000015 -0.000050 0
0.000031 -0.000048 0
0.000044 -0.000039 0
0.000054 -0.000021 0
0.000059 0.000006 0
0.000055 0.000038 0
0.000042 0.000070 0
0.000018 0.000094 0
-0.000012 0.000105 0
-0.000043 0.000100 0
-0.000069 0.000083 0
-0.000086 0.000060 0
-0.000095 0.000037 0
-0.000096 0.000018 0
-0.000094 0.000004 0
-0.000089 -0.000003 0
-0.000085 -0.000007 0
-0.000081 -0.000006 0
-0.000079 -0.000003 0
-0.000078 -0.000002 0
0.000000 0.000001 0
0.000015 -0.000070 0
0.000031 -0.000068 0
0.000049 -0.000053 0
0.000063 -0.000026 0
0.000072 0.000010 0
0.000070 0.000051 0
0.000055 0.000092 0
0.000026 0.000123 0
-0.000011 0.000136 0
-0.000048 0.000128 0
-0.000077 0.000104 0
-0.000094 0.000072 0
-0.000100 0.000041 0
-0.000099 0.000016 0
-0.000093 -0.000000 0
-0.000086 -0.000009 0
-0.000080 -0.000011 0
-0.000075 -0.000009 0
-0.000072 -0.000005 0
-0.000072 -0.000002 0
0.000000 -0.000002 0
0.000014 -0.000089 0
0.000033 -0.000084 0
0.000052 -0.000065 0
0.000069 -0.000034 0
0.000080 0.000007 0
0.000079 0.000058 0
0.000064 0.000111 0
0.000033 0.000155 0
-0.000009 0.000174 0
-0.000050 0.000163 0
-0.000081 0.000129 0
-0.000098 0.000084 0
-0.000101 0.000043 0
-0.000096 0.000012 0
-0.000088 -0.000008 0
-0.000079 -0.000016 0
-0.000071 -0.000018 0
-0.000066 -0.000014 0
-0.000063 -0.000006 0
-0.000063 -0.000002 0
0.000000 -0.000001 0
0.000014 -0.000105 0
0.000032 -0.000101 0
0.000050 -0.000082 0
0.000066 -0.000050 0
0.000078 -0.000002 0
0.000080 0.000062 0
0.000067 0.000133 0
0.000037 0.000192 0
-0.000006 0.000219 0
-0.000048 0.000203 0
-0.000079 0.000154 0
-0.000093 0.000094 0
-0.000093 0.000041 0
-0.000086 0.000003 0
-0.000076 -0.000018 0
-0.000066 -0.000026 0
-0.000058 -0.000025 0
-0.000053 -0.000018 0
-0.000050 -0.000008 0
-0.000049 -0.000002 0
0.000000 0.000001 0
0.000012 -0.000119 0
0.000025 -0.000118 0
0.000039 -0.000100 0
0.000053 -0.000066 0
0.000064 -0.000011 0
0.000068 0.000066 0
0.000059 0.000154 0
0.000034 0.000229 0
-0.000002 0.000261 0
-0.000039 0.000238 0
-0.000064 0.000174 0
-0.000074 0.000099 0
-0.000073 0.000036 0
-0.000065 -0.000006 0
-0.000055 -0.000028 0
-0.000047 -0.000034 0
-0.000040 -0.000031 0
-0.000035 -0.000022 0
-0.000033 -0.000009 0
-0.000033 -0.000002 0
0.000000 0.000000 0
0.000007 -0.000130 0
0.000013 -0.000131 0
0.000021 -0.000112 0
0.000030 -0.000075 0
0.000037 -0.000016 0
0.000040 0.000069 0
0.000036 0.000169 0
0.000022 0.000255 0
0.000000 0.000292 0
-0.000021 0.000263 0
-0.000035 0.000188 0
-0.000040 0.000101 0
-0.000038 0.000031 0
-0.000033 -0.000014 0
-0.000027 -0.000035 0
-0.000022 -0.000041 0
-0.000018 -0.000036 0
-0.000015 -0.000025 0
-0.000013 -0.000010 0
-0.000013 -0.000003 0
0.000000 -0.000001 0
-0.000000 -0.000135 0
-0.000000 -0.000135 0
-0.000000 -0.000115 0
0.000000 -0.000078 0
0.000001 -0.000018 0
0.000001 0.000069 0
0.000001 0.000173 0
0.000002 0.000263 0
0.000003 0.000302 0
0.000004 0.000272 0
0.000005 0.000193 0
0.000006 0.000102 0
0.000006 0.000029 0
0.000007 -0.000017 0
0.000007 -0.000039 0
0.000007 -0.000043 0
0.000007 -0.000038 0
0.000008 -0.000026 0
0.000008 -0.000011 0
0.000008 -0.000003 0
0.000000 -0.000001 0
-0.000006 -0.000130 0
-0.000014 -0.000130 0
-0.000022 -0.000111 0
-0.000030 -0.000075 0
-0.000036 -0.000017 0
-0.000038 0.000067 0
-0.000032 0.000166 0
-0.000017 0.000252 0
0.000006 0.000289 0
0.000029 0.000261 0
0.000045 0.000187 0
0.000051 0.000101 0
0.000050 0.000030 0
0.000046 -0.000014 0
0.000041 -0.000036 0
0.000036 -0.000041 0
0.000033 -0.000037 0
0.000030 -0.000025 0
0.000029 -0.000010 0
0.000029 -0.000003 0
0.000000 -0.000000 0
-0.000011 -0.000120 0
-0.000025 -0.000119 0
-0.000039 -0.000100 0
-0.000053 -0.000065 0
-0.000063 -0.000011 0
-0.000066 0.000065 0
-0.000055 0.000152 0
-0.000029 0.000225 0
0.000009 0.000257 0
0.000047 0.000234 0
0.000073 0.000171 0
0.000085 0.000097 0
0.000084 0.000034 0
0.000078 -0.000007 0
0.000069 -0.000029 0
0.000062 -0.000036 0
0.000056 -0.000032 0
0.000051 -0.000023 0
0.000049 -0.000010 0
0.000049 -0.000002 0
0.000000 -0.000000 0
-0.000015 -0.000105 0
-0.000033 -0.000103 0
-0.000050 -0.000084 0
-0.000066 -0.000052 0
-0.000077 -0.000003 0
-0.000078 0.000061 0
-0.000064 0.000131 0
-0.000033 0.000188 0
0.000011 0.000213 0
0.000055 0.000197 0
0.000087 0.000148 0
0.000103 0.000089 0
0.000105 0.000037 0
0.000099 0.000001 0
0.000091 -0.000020 0
0.000082 -0.000028 0
0.000075 -0.000026 0
0.000069 -0.000019 0
0.000067 -0.000008 0
0.000067 -0.000002 0
0.000000 -0.000000 0
-0.000017 -0.000088 0
-0.000036 -0.000084 0
-0.000054 -0.000067 0
-0.000069 -0.000038 0
-0.000079 0.000002 0
-0.000078 0.000053 0
-0.000062 0.000107 0
-0.000030 0.000149 0
0.000013 0.000168 0
0.000056 0.000157 0
0.000090 0.000123 0
0.000108 0.000079 0
0.000114 0.000038 0
0.000111 0.000007 0
0.000104 -0.000011 0
0.000096 -0.000020 0
0.000089 -0.000020 0
0.000084 -0.000015 0
0.000081 -0.000007 0
0.000081 -0.000002 0
0.000000 -0.000000 0
-0.000017 -0.000069 0
-0.000036 -0.000066 0
-0.000054 -0.000050 0
-0.000067 -0.000027 0
-0.000074 0.000005 0
-0.000071 0.000044 0
-0.000054 0.000083 0
-0.000024 0.000113 0
0.000015 0.000127 0
0.000054 0.000120 0
0.000086 0.000097 0
0.000106 0.000065 0
0.000115 0.000035 0
0.000115 0.000011 0
0.000111 -0.000005 0
0.000105 -0.000013 0
0.000099 -0.000014 0
0.000095 -0.000011 0
0.000092 -0.000005 0
0.000092 -0.000002 0
0.000000 -0.000000 0
-0.000017 -0.000051 0
-0.000035 -0.000048 0
-0.000051 -0.000036 0
-0.000063 -0.000018 0
-0.000068 0.000005 0
-0.000062 0.000033 0
-0.000046 0.000060 0
-0.000018 0.000081 0
0.000016 0.000090 0
0.000051 0.000086 0
0.000081 0.000071 0
0.000101 0.000050 0
0.000112 0.000028 0
0.000116 0.000011 0
0.000115 -0.000001 0
0.000111 -0.000008 0
0.000106 -0.000010 0
0.000103 -0.000008 0
0.000100 -0.000004 0
0.000100 -0.000001 0
0.000000 -0.000000 0
-0.000017 -0.000033 0
-0.000035 -0.000031 0
-0.000050 -0.000023 0
-0.000060 -0.000011 0
-0.000063 0.000004 0
-0.000056 0.000022 0
-0.000040 0.000039 0
-0.000015 0.000052 0
0.000016 0.000058 0
0.000048 0.000055 0
0.000076 0.000046 0
0.000097 0.000033 0
0.000110 0.000020 0
0.000116 0.000008 0
0.000117 0.000000 0
0.000115 -0.000004 0
0.000111 -0.000006 0
0.000108 -0.000005 0
0.000106 -0.000002 0
0.000105 -0.000001 0
0.000000 -0.000000 0
-0.000016 -0.000016 0
-0.000033 -0.000015 0
-0.000047 -0.000011 0
-0.000057 -0.000005 0
-0.000059 0.000002 0
-0.000052 0.000011 0
-0.000037 0.000018 0
-0.000013 0.000024 0
0.000015 0.000027 0
0.000044 0.000026 0
0.000070 0.000022 0
0.000091 0.000016 0
0.000104 0.000010 0
0.000110 0.000004 0
0.000112 0.000000 0
0.000110 -0.000002 0
0.000107 -0.000003 0
0.000104 -0.000002 0
0.000102 -0.000001 0
0.000102 -0.000000 0
0.000000 0.000000 0
0.000000 0.000000 0
0.000000 0.000000 0
0.000000 0.000000 0
-0.000000 0.000000 0
-0.000000 0.000000 0
-0.000000 0.000000 0
-0.000000 0.000000 0
-0.000000 0.000000 0
0.000000 0.000000 0
0.000000 0.000000 0
0.000000 0.000000 0
0.000000 0.000000 0
0.000000 0.000000 0
0.000000 0.000000 0
0.000000 0.000000 0
0.000000 0.000000 0
0.000000 0.000000 0
0.000000 0.000000 0
0.000000 0.000000 0
0.000000 0.000000 0

CELL_DATA 400 
SCALARS pressure float 1 
LOOKUP_TABLE default 
0.242660
0.242616
0.242576
0.242566
0.242586
0.242618
0.242643
0.242650
0.242643
0.242628
0.242613
0.242606
0.242605
0.242608
0.242613
0.242617
0.242619
0.242620
0.242621
0.242621
0.219604
0.219595
0.219609
0.219629
0.219640
0.219638
0.219627
0.219614
0.219605
0.219602
0.219605
0.219611
0.219616
0.219619
0.219620
0.219620
0.219620
0.219620
0.219620
0.219621
0.196595
0.196627
0.196646
0.196642
0.196623
0.196603
0.196591
0.196592
0.196601
0.196613
0.196621
0.196625
0.196624
0.196621
0.196619
0.196617
0.196618
0.196618
0.196619
0.196620
0.173622
0.173639
0.173632
0.173613
0.173596
0.173591
0.173597
0.173609
0.173620
0.173626
0.173626
0.173623
0.173618
0.173616
0.173615
0.173616
0.173618
0.173619
0.173620
0.173621
0.150626
0.150620
0.150611
0.150606
0.150608
0.150613
0.150619
0.150622
0.150622
0.150619
0.150616
0.150615
0.150614
0.150615
0.150617
0.150618
0.150619
0.150620
0.150620
0.150621
0.127610
0.127610
0.127617
0.127624
0.127627
0.127625
0.127619
0.127613
0.127610
0.127610
0.127612
0.127615
0.127617
0.127619
0.127619
0.127620
0.127620
0.127620
0.127621
0.127621
0.104607
0.104619
0.104629
0.104630
0.104625
0.104616
0.104609
0.104607
0.104609
0.104613
0.104617
0.104619
0.104620
0.104620
0.104619
0.104619
0.104619
0.104620
0.104621
0.104621
0.081617
0.081624
0.081625
0.081621
0.081616
0.081612
0.081611
0.081613
0.081616
0.081618
0.081619
0.081619
0.081619
0.081619
0.081619
0.081619
0.081620
0.081620
0.081621
0.081621
0.058621
0.058619
0.058618
0.058618
0.058619
0.058620
0.058620
0.058619
0.058618
0.058618
0.058617
0.058618
0.058618
0.058619
0.058620
0.058620
0.058621
0.058621
0.058621
0.058622
0.035619
0.035616
0.035619
0.035624
0.035626
0.035625
0.035622
0.035619
0.035617
0.035617
0.035617
0.035619
0.035620
0.035621
0.035622
0.035622
0.035622
0.035622
0.035622
0.035622
0.012618
0.012620
0.012624
0.012627
0.012626
0.012624
0.012621
0.012619
0.012619
0.012620
0.012621
0.012622
0.012623
0.012623
0.012623
0.012622
0.012622
0.012622
0.012622
0.012622
-0.010377
-0.010377
-0.010376
-0.010375
-0.010376
-0.010376
-0.010376
-0.010376
-0.010376
-0.010376
-0.010376
-0.010376
-0.010376
-0.010376
-0.010377
-0.010377
-0.010377
-0.010377
-0.010377
-0.010377
-0.033374
-0.033377
-0.033377
-0.033376
-0.033374
-0.033373
-0.033372
-0.033372
-0.033373
-0.033374
-0.033374
-0.033375
-0.033375
-0.033375
-0.033375
-0.033376
-0.033376
-0.033376
-0.033377
-0.033377
-0.056374
-0.056376
-0.056376
-0.056374
-0.056372
-0.056370
-0.056370
-0.056371
-0.056372
-0.056373
-0.056373
-0.056373
-0.056373
-0.056374
-0.056374
-0.056375
-0.056375
-0.056376
-0.056376
-0.056377
-0.079373
-0.079374
-0.079374
-0.079372
-0.079371
-0.079370
-0.079370
-0.079370
-0.079371
-0.079371
-0.079371
-0.079372
-0.079372
-0.079373
-0.079373
-0.079374
-0.079375
-0.079375
-0.079376
-0.079377
-0.102372
-0.102373
-0.102373
-0.102372
-0.102371
-0.102370
-0.102370
-0.102369
-0.102369
-0.102370
-0.102370
-0.102371
-0.102371
-0.102372
-0.102373
-0.102374
-0.102374
-0.102375
-0.102376
-0.102376
-0.125371
-0.125372
-0.125372
-0.125372
-0.125371
-0.125370
-0.125369
-0.125368
-0.125368
-0.125369
-0.125369
-0.125370
-0.125371
-0.125372
-0.125372
-0.125373
-0.125374
-0.125375
-0.125375
-0.125376
-0.148371
-0.148371
-0.148372
-0.148371
-0.148370
-0.148369
-0.148368
-0.148368
-0.148368
-0.148368
-0.148369
-0.148370
-0.148370
-0.148371
-0.148372
-0.148373
-0.148373
-0.148374
-0.148375
-0.148376
-0.171371
-0.171371
-0.171371
-0.171371
-0.171370
-0.171369
-0.171368
-0.171368
-0.171368
-0.171368
-0.171368
-0.171369
-0.171370
-0.171370
-0.171371
-0.171372
-0.171373
-0.171374
-0.171375
-0.171376
-0.194370
-0.194370
-0.194370
-0.194370
-0.194370
-0.194369
-0.194368
-0.194367
-0.194367
-0.194367
-0.194368
-0.194368
-0.194369
-0.194370
-0.194371
-0.194372
-0.194373
-0.194374
-0.194375
-0.194375

SCALARS temperature float 1 
LOOKUP_TABLE default 
0.000011
0.000097
0.000262
0.000498
0.000785
0.001096
0.001395
0.001645
0.001814
0.001882
0.001846
0.001721
0.001534
0.001316
0.001096
0.000896
0.000731
0.000605
0.000523
0.000482
0.000013
0.000109
0.000295
0.000562
0.000888
0.001243
0.001585
0.001871
0.002062
0.002136
0.002090
0.001941
0.001722
0.001469
0.001217
0.000990
0.000803
0.000663
0.000571
0.000525
0.000016
0.000134
0.000366
0.000699
0.001110
0.001560
0.001998
0.002364
0.002606
0.002692
0.002619
0.002413
0.002120
0.001790
0.001467
0.001181
0.000949
0.000777
0.000665
0.000610
0.000021
0.000177
0.000484
0.000930
0.001487
0.002106
0.002714
0.003225
0.003557
0.003661
0.003533
0.003218
0.002788
0.002318
0.001870
0.001484
0.001177
0.000953
0.000809
0.000739
0.000029
0.000239
0.000660
0.001280
0.002068
0.002961
0.003853
0.004607
0.005091
0.005217
0.004986
0.004475
0.003807
0.003105
0.002457
0.001914
0.001493
0.001194
0.001004
0.000912
0.000039
0.000326
0.000905
0.001774
0.002906
0.004218
0.005560
0.006711
0.007441
0.007594
0.007171
0.006322
0.005265
0.004196
0.003247
0.002478
0.001900
0.001497
0.001245
0.001126
0.000053
0.000436
0.001220
0.002422
0.004029
0.005950
0.007973
0.009747
0.010867
0.011046
0.010292
0.008887
0.007220
0.005609
0.004236
0.003163
0.002380
0.001848
0.001522
0.001368
0.000068
0.000562
0.001587
0.003194
0.005406
0.008145
0.011133
0.013829
0.015536
0.015736
0.014444
0.012188
0.009637
0.007286
0.005367
0.003921
0.002899
0.002220
0.001812
0.001621
0.000083
0.000690
0.001964
0.004004
0.006896
0.010605
0.014807
0.018722
0.021228
0.021438
0.019384
0.015975
0.012294
0.009053
0.006515
0.004669
0.003399
0.002573
0.002083
0.001856
0.000096
0.000797
0.002283
0.004704
0.008218
0.012862
0.018300
0.023518
0.026902
0.027115
0.024205
0.019548
0.014704
0.010598
0.007488
0.005289
0.003808
0.002860
0.002303
0.002046
0.000104
0.000860
0.002472
0.005121
0.009015
0.014253
0.020504
0.026610
0.030605
0.030823
0.027319
0.021809
0.016197
0.011539
0.008077
0.005665
0.004058
0.003037
0.002440
0.002166
0.000104
0.000865
0.002484
0.005140
0.009039
0.014273
0.020509
0.026600
0.030590
0.030818
0.027339
0.021856
0.016263
0.011610
0.008144
0.005724
0.004108
0.003079
0.002477
0.002200
0.000098
0.000812
0.002322
0.004769
0.008303
0.012950
0.018368
0.023563
0.026947
0.027190
0.024333
0.019731
0.014922
0.010820
0.007693
0.005467
0.003958
0.002986
0.002413
0.002148
0.000087
0.000718
0.002035
0.004131
0.007077
0.010824
0.015043
0.018969
0.021499
0.021751
0.019746
0.016378
0.012711
0.009450
0.006868
0.004970
0.003651
0.002785
0.002267
0.002026
0.000073
0.000604
0.001698
0.003398
0.005714
0.008549
0.011619
0.014382
0.016147
0.016394
0.015130
0.012876
0.010293
0.007879
0.005880
0.004351
0.003254
0.002516
0.002068
0.001857
0.000060
0.000494
0.001375
0.002713
0.004480
0.006566
0.008743
0.010646
0.011859
0.012090
0.011338
0.009889
0.008136
0.006412
0.004914
0.003722
0.002838
0.002228
0.001850
0.001670
0.000048
0.000401
0.001107
0.002156
0.003504
0.005049
0.006613
0.007951
0.008809
0.009019
0.008576
0.007640
0.006445
0.005212
0.004093
0.003168
0.002460
0.001959
0.001644
0.001492
0.000040
0.000331
0.000908
0.001751
0.002813
0.004002
0.005180
0.006174
0.006819
0.007008
0.006738
0.006102
0.005250
0.004333
0.003471
0.002736
0.002158
0.001740
0.001473
0.001343
0.000034
0.000285
0.000780
0.001495
0.002382
0.003361
0.004318
0.005120
0.005647
0.005822
0.005640
0.005164
0.004503
0.003770
0.003063
0.002445
0.001950
0.001587
0.001352
0.001237
0.000032
0.000263
0.000718
0.001371
0.002177
0.003060
0.003917
0.004635
0.005109
0.005276
0.005130
0.004724
0.004147
0.003497
0.002861
0.002300
0.001845
0.001509
0.001290
0.001182


SCALARS Species_1 float 1 
LOOKUP_TABLE default 
0.000601
0.001803
0.003002
0.004193
0.005368
0.006512
0.007610
0.008639
0.009580
0.010412
0.011122
0.011700
0.012145
0.012464
0.012673
0.012793
0.012847
0.012861
0.012857
0.012851
0.000605
0.001813
0.003019
0.004217
0.005397
0.006547
0.007649
0.008683
0.009628
0.010464
0.011177
0.011758
0.012206
0.012528
0.012739
0.012860
0.012916
0.012931
0.012927
0.012922
0.000611
0.001831
0.003049
0.004258
0.005450
0.006610
0.007722
0.008764
0.009717
0.010561
0.011280
0.011866
0.012318
0.012644
0.012857
0.012981
0.013038
0.013054
0.013051
0.013046
0.000618
0.001854
0.003086
0.004310
0.005515
0.006688
0.007812
0.008866
0.009829
0.010682
0.011409
0.012002
0.012459
0.012788
0.013005
0.013130
0.013189
0.013206
0.013204
0.013199
0.000626
0.001876
0.003123
0.004361
0.005579
0.006766
0.007902
0.008967
0.009940
0.010802
0.011536
0.012135
0.012597
0.012930
0.013150
0.013278
0.013338
0.013356
0.013354
0.013349
0.000632
0.001893
0.003151
0.004399
0.005628
0.006824
0.007969
0.009042
0.010023
0.010891
0.011631
0.012234
0.012700
0.013036
0.013258
0.013387
0.013448
0.013467
0.013466
0.013461
0.000634
0.001900
0.003162
0.004414
0.005646
0.006845
0.007992
0.009068
0.010051
0.010921
0.011662
0.012267
0.012734
0.013071
0.013294
0.013424
0.013486
0.013506
0.013505
0.013500
0.000631
0.001892
0.003148
0.004394
0.005620
0.006813
0.007955
0.009025
0.010002
0.010867
0.011605
0.012206
0.012671
0.013007
0.013229
0.013359
0.013422
0.013442
0.013441
0.013437
0.000622
0.001866
0.003105
0.004333
0.005542
0.006718
0.007843
0.008898
0.009861
0.010713
0.011440
0.012033
0.012491
0.012822
0.013042
0.013171
0.013233
0.013254
0.013254
0.013250
0.000607
0.001821
0.003029
0.004228
0.005407
0.006554
0.007651
0.008680
0.009619
0.010450
0.011159
0.011737
0.012184
0.012508
0.012723
0.012849
0.012911
0.012932
0.012932
0.012929
0.000586
0.001756
0.002922
0.004078
0.005216
0.006322
0.007380
0.008372
0.009278
0.010079
0.010763
0.011321
0.011752
0.012065
0.012273
0.012396
0.012457
0.012478
0.012479
0.012476
0.000559
0.001675
0.002787
0.003890
0.004975
0.006030
0.007040
0.007985
0.008849
0.009613
0.010266
0.010798
0.011210
0.011510
0.011709
0.011828
0.011887
0.011907
0.011909
0.011907
0.000527
0.001581
0.002631
0.003672
0.004696
0.005692
0.006644
0.007537
0.008352
0.009074
0.009690
0.010193
0.010584
0.010867
0.011057
0.011170
0.011226
0.011247
0.011249
0.011247
0.000493
0.001479
0.002461
0.003435
0.004393
0.005325
0.006216
0.007052
0.007815
0.008491
0.009068
0.009540
0.009906
0.010172
0.010351
0.010458
0.010512
0.010532
0.010535
0.010533
0.000459
0.001375
0.002288
0.003193
0.004084
0.004951
0.005780
0.006558
0.007268
0.007897
0.008435
0.008875
0.009217
0.009466
0.009634
0.009735
0.009786
0.009805
0.009809
0.009807
0.000425
0.001275
0.002122
0.002962
0.003789
0.004594
0.005364
0.006086
0.006745
0.007330
0.007830
0.008240
0.008559
0.008792
0.008949
0.009044
0.009092
0.009111
0.009115
0.009114
0.000396
0.001186
0.001975
0.002757
0.003527
0.004276
0.004993
0.005665
0.006280
0.006826
0.007293
0.007676
0.007974
0.008192
0.008339
0.008429
0.008475
0.008494
0.008498
0.008497
0.000372
0.001114
0.001855
0.002590
0.003313
0.004018
0.004692
0.005324
0.005903
0.006416
0.006856
0.007217
0.007499
0.007705
0.007845
0.007930
0.007974
0.007992
0.007996
0.007996
0.000355
0.001063
0.001770
0.002472
0.003163
0.003836
0.004480
0.005084
0.005637
0.006128
0.006549
0.006894
0.007164
0.007362
0.007496
0.007578
0.007621
0.007639
0.007643
0.007643
0.000346
0.001037
0.001727
0.002411
0.003086
0.003742
0.004370
0.004960
0.005500
0.005979
0.006390
0.006728
0.006991
0.007185
0.007316
0.007397
0.007439
0.007456
0.007461
0.007461


SCALARS Species_2 float 1 
LOOKUP_TABLE default 
0.000307
0.000907
0.001466
0.001962
0.002375
0.002692
0.002908
0.003021
0.003038
0.002970
0.002831
0.002640
0.002414
0.002171
0.001930
0.001705
0.001510
0.001355
0.001247
0.001192
0.000320
0.000945
0.001528
0.002045
0.002476
0.002807
0.003031
0.003149
0.003167
0.003097
0.002953
0.002753
0.002518
0.002266
0.002015
0.001781
0.001578
0.001416
0.001304
0.001246
0.000345
0.001020
0.001650
0.002207
0.002672
0.003029
0.003271
0.003399
0.003418
0.003342
0.003187
0.002972
0.002719
0.002447
0.002176
0.001924
0.001705
0.001531
0.001410
0.001348
0.000382