# vtk DataFile Version 2.0
generated by CFD-lab course output (written by Tobias Neckel) 
ASCII

DATASET STRUCTURED_GRID
DIMENSIONS  21 21 1 
POINTS 441 float

0.000000 0.000000 0
0.100000 0.000000 0
0.200000 0.000000 0
0.300000 0.000000 0
0.400000 0.000000 0
0.500000 0.000000 0
0.600000 0.000000 0
0.700000 0.000000 0
0.800000 0.000000 0
0.900000 0.000000 0
1.000000 0.000000 0
1.100000 0.000000 0
1.200000 0.000000 0
1.300000 0.000000 0
1.400000 0.000000 0
1.500000 0.000000 0
1.600000 0.000000 0
1.700000 0.000000 0
1.800000 0.000000 0
1.900000 0.000000 0
2.000000 0.000000 0
0.000000 0.100000 0
0.100000 0.100000 0
0.200000 0.100000 0
0.300000 0.100000 0
0.400000 0.100000 0
0.500000 0.100000 0
0.600000 0.100000 0
0.700000 0.100000 0
0.800000 0.100000 0
0.900000 0.100000 0
1.000000 0.100000 0
1.100000 0.100000 0
1.200000 0.100000 0
1.300000 0.100000 0
1.400000 0.100000 0
1.500000 0.100000 0
1.600000 0.100000 0
1.700000 0.100000 0
1.800000 0.100000 0
1.900000 0.100000 0
2.000000 0.100000 0
0.000000 0.200000 0
0.100000 0.200000 0
0.200000 0.200000 0
0.300000 0.200000 0
0.400000 0.200000 0
0.500000 0.200000 0
0.600000 0.200000 0
0.700000 0.200000 0
0.800000 0.200000 0
0.900000 0.200000 0
1.000000 0.200000 0
1.100000 0.200000 0
1.200000 0.200000 0
1.300000 0.200000 0
1.400000 0.200000 0
1.500000 0.200000 0
1.600000 0.200000 0
1.700000 0.200000 0
1.800000 0.200000 0
1.900000 0.200000 0
2.000000 0.200000 0
0.000000 0.300000 0
0.100000 0.300000 0
0.200000 0.300000 0
0.300000 0.300000 0
0.400000 0.300000 0
0.500000 0.300000 0
0.600000 0.300000 0
0.700000 0.300000 0
0.800000 0.300000 0
0.900000 0.300000 0
1.000000 0.300000 0
1.100000 0.300000 0
1.200000 0.300000 0
1.300000 0.300000 0
1.400000 0.300000 0
1.500000 0.300000 0
1.600000 0.300000 0
1.700000 0.300000 0
1.800000 0.300000 0
1.900000 0.300000 0
2.000000 0.300000 0
0.000000 0.400000 0
0.100000 0.400000 0
0.200000 0.400000 0
0.300000 0.400000 0
0.400000 0.400000 0
0.500000 0.400000 0
0.600000 0.400000 0
0.700000 0.400000 0
0.800000 0.400000 0
0.900000 0.400000 0
1.000000 0.400000 0
1.100000 0.400000 0
1.200000 0.400000 0
1.300000 0.400000 0
1.400000 0.400000 0
1.500000 0.400000 0
1.600000 0.400000 0
1.700000 0.400000 0
1.800000 0.400000 0
1.900000 0.400000 0
2.000000 0.400000 0
0.000000 0.500000 0
0.100000 0.500000 0
0.200000 0.500000 0
0.300000 0.500000 0
0.400000 0.500000 0
0.500000 0.500000 0
0.600000 0.500000 0
0.700000 0.500000 0
0.800000 0.500000 0
0.900000 0.500000 0
1.000000 0.500000 0
1.100000 0.500000 0
1.200000 0.500000 0
1.300000 0.500000 0
1.400000 0.500000 0
1.500000 0.500000 0
1.600000 0.500000 0
1.700000 0.500000 0
1.800000 0.500000 0
1.900000 0.500000 0
2.000000 0.500000 0
0.000000 0.600000 0
0.100000 0.600000 0
0.200000 0.600000 0
0.300000 0.600000 0
0.400000 0.600000 0
0.500000 0.600000 0
0.600000 0.600000 0
0.700000 0.600000 0
0.800000 0.600000 0
0.900000 0.600000 0
1.000000 0.600000 0
1.100000 0.600000 0
1.200000 0.600000 0
1.300000 0.600000 0
1.400000 0.600000 0
1.500000 0.600000 0
1.600000 0.600000 0
1.700000 0.600000 0
1.800000 0.600000 0
1.900000 0.600000 0
2.000000 0.600000 0
0.000000 0.700000 0
0.100000 0.700000 0
0.200000 0.700000 0
0.300000 0.700000 0
0.400000 0.700000 0
0.500000 0.700000 0
0.600000 0.700000 0
0.700000 0.700000 0
0.800000 0.700000 0
0.900000 0.700000 0
1.000000 0.700000 0
1.100000 0.700000 0
1.200000 0.700000 0
1.300000 0.700000 0
1.400000 0.700000 0
1.500000 0.700000 0
1.600000 0.700000 0
1.700000 0.700000 0
1.800000 0.700000 0
1.900000 0.700000 0
2.000000 0.700000 0
0.000000 0.800000 0
0.100000 0.800000 0
0.200000 0.800000 0
0.300000 0.800000 0
0.400000 0.800000 0
0.500000 0.800000 0
0.600000 0.800000 0
0.700000 0.800000 0
0.800000 0.800000 0
0.900000 0.800000 0
1.000000 0.800000 0
1.100000 0.800000 0
1.200000 0.800000 0
1.300000 0.800000 0
1.400000 0.800000 0
1.500000 0.800000 0
1.600000 0.800000 0
1.700000 0.800000 0
1.800000 0.800000 0
1.900000 0.800000 0
2.000000 0.800000 0
0.000000 0.900000 0
0.100000 0.900000 0
0.200000 0.900000 0
0.300000 0.900000 0
0.400000 0.900000 0
0.500000 0.900000 0
0.600000 0.900000 0
0.700000 0.900000 0
0.800000 0.900000 0
0.900000 0.900000 0
1.000000 0.900000 0
1.100000 0.900000 0
1.200000 0.900000 0
1.300000 0.900000 0
1.400000 0.900000 0
1.500000 0.900000 0
1.600000 0.900000 0
1.700000 0.900000 0
1.800000 0.900000 0
1.900000 0.900000 0
2.000000 0.900000 0
0.000000 1.000000 0
0.100000 1.000000 0
0.200000 1.000000 0
0.300000 1.000000 0
0.400000 1.000000 0
0.500000 1.000000 0
0.600000 1.000000 0
0.700000 1.000000 0
0.800000 1.000000 0
0.900000 1.000000 0
1.000000 1.000000 0
1.100000 1.000000 0
1.200000 1.000000 0
1.300000 1.000000 0
1.400000 1.000000 0
1.500000 1.000000 0
1.600000 1.000000 0
1.700000 1.000000 0
1.800000 1.000000 0
1.900000 1.000000 0
2.000000 1.000000 0
0.000000 1.100000 0
0.100000 1.100000 0
0.200000 1.100000 0
0.300000 1.100000 0
0.400000 1.100000 0
0.500000 1.100000 0
0.600000 1.100000 0
0.700000 1.100000 0
0.800000 1.100000 0
0.900000 1.100000 0
1.000000 1.100000 0
1.100000 1.100000 0
1.200000 1.100000 0
1.300000 1.100000 0
1.400000 1.100000 0
1.500000 1.100000 0
1.600000 1.100000 0
1.700000 1.100000 0
1.800000 1.100000 0
1.900000 1.100000 0
2.000000 1.100000 0
0.000000 1.200000 0
0.100000 1.200000 0
0.200000 1.200000 0
0.300000 1.200000 0
0.400000 1.200000 0
0.500000 1.200000 0
0.600000 1.200000 0
0.700000 1.200000 0
0.800000 1.200000 0
0.900000 1.200000 0
1.000000 1.200000 0
1.100000 1.200000 0
1.200000 1.200000 0
1.300000 1.200000 0
1.400000 1.200000 0
1.500000 1.200000 0
1.600000 1.200000 0
1.700000 1.200000 0
1.800000 1.200000 0
1.900000 1.200000 0
2.000000 1.200000 0
0.000000 1.300000 0
0.100000 1.300000 0
0.200000 1.300000 0
0.300000 1.300000 0
0.400000 1.300000 0
0.500000 1.300000 0
0.600000 1.300000 0
0.700000 1.300000 0
0.800000 1.300000 0
0.900000 1.300000 0
1.000000 1.300000 0
1.100000 1.300000 0
1.200000 1.300000 0
1.300000 1.300000 0
1.400000 1.300000 0
1.500000 1.300000 0
1.600000 1.300000 0
1.700000 1.300000 0
1.800000 1.300000 0
1.900000 1.300000 0
2.000000 1.300000 0
0.000000 1.400000 0
0.100000 1.400000 0
0.200000 1.400000 0
0.300000 1.400000 0
0.400000 1.400000 0
0.500000 1.400000 0
0.600000 1.400000 0
0.700000 1.400000 0
0.800000 1.400000 0
0.900000 1.400000 0
1.000000 1.400000 0
1.100000 1.400000 0
1.200000 1.400000 0
1.300000 1.400000 0
1.400000 1.400000 0
1.500000 1.400000 0
1.600000 1.400000 0
1.700000 1.400000 0
1.800000 1.400000 0
1.900000 1.400000 0
2.000000 1.400000 0
0.000000 1.500000 0
0.100000 1.500000 0
0.200000 1.500000 0
0.300000 1.500000 0
0.400000 1.500000 0
0.500000 1.500000 0
0.600000 1.500000 0
0.700000 1.500000 0
0.800000 1.500000 0
0.900000 1.500000 0
1.000000 1.500000 0
1.100000 1.500000 0
1.200000 1.500000 0
1.300000 1.500000 0
1.400000 1.500000 0
1.500000 1.500000 0
1.600000 1.500000 0
1.700000 1.500000 0
1.800000 1.500000 0
1.900000 1.500000 0
2.000000 1.500000 0
0.000000 1.600000 0
0.100000 1.600000 0
0.200000 1.600000 0
0.300000 1.600000 0
0.400000 1.600000 0
0.500000 1.600000 0
0.600000 1.600000 0
0.700000 1.600000 0
0.800000 1.600000 0
0.900000 1.600000 0
1.000000 1.600000 0
1.100000 1.600000 0
1.200000 1.600000 0
1.300000 1.600000 0
1.400000 1.600000 0
1.500000 1.600000 0
1.600000 1.600000 0
1.700000 1.600000 0
1.800000 1.600000 0
1.900000 1.600000 0
2.000000 1.600000 0
0.000000 1.700000 0
0.100000 1.700000 0
0.200000 1.700000 0
0.300000 1.700000 0
0.400000 1.700000 0
0.500000 1.700000 0
0.600000 1.700000 0
0.700000 1.700000 0
0.800000 1.700000 0
0.900000 1.700000 0
1.000000 1.700000 0
1.100000 1.700000 0
1.200000 1.700000 0
1.300000 1.700000 0
1.400000 1.700000 0
1.500000 1.700000 0
1.600000 1.700000 0
1.700000 1.700000 0
1.800000 1.700000 0
1.900000 1.700000 0
2.000000 1.700000 0
0.000000 1.800000 0
0.100000 1.800000 0
0.200000 1.800000 0
0.300000 1.800000 0
0.400000 1.800000 0
0.500000 1.800000 0
0.600000 1.800000 0
0.700000 1.800000 0
0.800000 1.800000 0
0.900000 1.800000 0
1.000000 1.800000 0
1.100000 1.800000 0
1.200000 1.800000 0
1.300000 1.800000 0
1.400000 1.800000 0
1.500000 1.800000 0
1.600000 1.800000 0
1.700000 1.800000 0
1.800000 1.800000 0
1.900000 1.800000 0
2.000000 1.800000 0
0.000000 1.900000 0
0.100000 1.900000 0
0.200000 1.900000 0
0.300000 1.900000 0
0.400000 1.900000 0
0.500000 1.900000 0
0.600000 1.900000 0
0.700000 1.900000 0
0.800000 1.900000 0
0.900000 1.900000 0
1.000000 1.900000 0
1.100000 1.900000 0
1.200000 1.900000 0
1.300000 1.900000 0
1.400000 1.900000 0
1.500000 1.900000 0
1.600000 1.900000 0
1.700000 1.900000 0
1.800000 1.900000 0
1.900000 1.900000 0
2.000000 1.900000 0
0.000000 2.000000 0
0.100000 2.000000 0
0.200000 2.000000 0
0.300000 2.000000 0
0.400000 2.000000 0
0.500000 2.000000 0
0.600000 2.000000 0
0.700000 2.000000 0
0.800000 2.000000 0
0.900000 2.000000 0
1.000000 2.000000 0
1.100000 2.000000 0
1.200000 2.000000 0
1.300000 2.000000 0
1.400000 2.000000 0
1.500000 2.000000 0
1.600000 2.000000 0
1.700000 2.000000 0
1.800000 2.000000 0
1.900000 2.000000 0
2.000000 2.000000 0
POINT_DATA 441 

VECTORS velocity float
0.000000 0.000000 0
-0.000011 0.000000 0
-0.000007 0.000000 0
0.000001 0.000000 0
0.000006 0.000000 0
0.000007 0.000000 0
0.000004 0.000000 0
-0.000000 0.000000 0
-0.000003 0.000000 0
-0.000004 0.000000 0
-0.000003 0.000000 0
-0.000001 0.000000 0
0.000000 0.000000 0
0.000001 0.000000 0
0.000001 0.000000 0
0.000000 0.000000 0
0.000000 0.000000 0
-0.000000 0.000000 0
-0.000000 0.000000 0
-0.000000 0.000000 0
-0.000000 0.000000 0
0.000000 -0.000012 0
0.000005 -0.000022 0
0.000020 -0.000010 0
0.000034 0.000005 0
0.000043 0.000013 0
0.000043 0.000014 0
0.000035 0.000011 0
0.000020 0.000008 0
0.000001 0.000008 0
-0.000021 0.000011 0
-0.000042 0.000015 0
-0.000061 0.000017 0
-0.000077 0.000016 0
-0.000090 0.000013 0
-0.000099 0.000009 0
-0.000104 0.000005 0
-0.000107 0.000002 0
-0.000107 0.000000 0
-0.000107 -0.000001 0
-0.000106 -0.000001 0
-0.000106 -0.000000 0
0.000000 0.000001 0
0.000016 -0.000022 0
0.000031 -0.000013 0
0.000040 -0.000007 0
0.000043 -0.000005 0
0.000042 0.000000 0
0.000035 0.000010 0
0.000022 0.000022 0
0.000004 0.000035 0
-0.000019 0.000043 0
-0.000043 0.000045 0
-0.000066 0.000041 0
-0.000086 0.000033 0
-0.000100 0.000023 0
-0.000109 0.000014 0
-0.000114 0.000007 0
-0.000116 0.000002 0
-0.000115 -0.000001 0
-0.000114 -0.000001 0
-0.000114 -0.000001 0
-0.000113 -0.000001 0
0.000000 0.000005 0
0.000021 -0.000033 0
0.000032 -0.000034 0
0.000040 -0.000029 0
0.000046 -0.000016 0
0.000048 0.000004 0
0.000044 0.000028 0
0.000032 0.000050 0
0.000011 0.000065 0
-0.000017 0.000072 0
-0.000046 0.000070 0
-0.000072 0.000060 0
-0.000092 0.000046 0
-0.000106 0.000032 0
-0.000114 0.000019 0
-0.000116 0.000009 0
-0.000116 0.000003 0
-0.000115 -0.000001 0
-0.000113 -0.000002 0
-0.000112 -0.000002 0
-0.000112 -0.000001 0
0.000000 -0.000001 0
0.000018 -0.000055 0
0.000033 -0.000055 0
0.000047 -0.000039 0
0.000058 -0.000015 0
0.000063 0.000015 0
0.000059 0.000045 0
0.000043 0.000071 0
0.000016 0.000090 0
-0.000016 0.000097 0
-0.000050 0.000094 0
-0.000079 0.000081 0
-0.000100 0.000062 0
-0.000113 0.000042 0
-0.000118 0.000025 0
-0.000119 0.000011 0
-0.000117 0.000002 0
-0.000113 -0.000003 0
-0.000110 -0.000004 0
-0.000109 -0.000002 0
-0.000108 -0.000001 0
0.000000 -0.000004 0
0.000018 -0.000076 0
0.000039 -0.000069 0
0.000058 -0.000047 0
0.000072 -0.000018 0
0.000077 0.000016 0
0.000072 0.000053 0
0.000054 0.000089 0
0.000023 0.000117 0
-0.000015 0.000130 0
-0.000054 0.000127 0
-0.000086 0.000108 0
-0.000108 0.000081 0
-0.000120 0.000052 0
-0.000123 0.000027 0
-0.000120 0.000009 0
-0.000116 -0.000002 0
-0.000110 -0.000007 0
-0.000106 -0.000007 0
-0.000103 -0.000004 0
-0.000103 -0.000002 0
0.000000 -0.000000 0
0.000021 -0.000093 0
0.000045 -0.000086 0
0.000066 -0.000065 0
0.000081 -0.000033 0
0.000089 0.000009 0
0.000085 0.000061 0
0.000067 0.000113 0
0.000033 0.000155 0
-0.000012 0.000175 0
-0.000057 0.000168 0
-0.000094 0.000138 0
-0.000117 0.000098 0
-0.000126 0.000058 0
-0.000125 0.000025 0
-0.000119 0.000003 0
-0.000111 -0.000009 0
-0.000104 -0.000013 0
-0.000098 -0.000011 0
-0.000094 -0.000006 0
-0.000094 -0.000002 0
0.000000 0.000002 0
0.000023 -0.000114 0
0.000046 -0.000112 0
0.000067 -0.000089 0
0.000085 -0.000051 0
0.000097 0.000004 0
0.000097 0.000073 0
0.000080 0.000144 0
0.000042 0.000200 0
-0.000008 0.000225 0
-0.000060 0.000212 0
-0.000099 0.000168 0
-0.000121 0.000112 0
-0.000127 0.000059 0
-0.000122 0.000019 0
-0.000112 -0.000006 0
-0.000101 -0.000018 0
-0.000092 -0.000021 0
-0.000085 -0.000016 0
-0.000082 -0.000007 0
-0.000082 -0.000002 0
0.000000 0.000000 0
0.000020 -0.000138 0
0.000041 -0.000137 0
0.000063 -0.000111 0
0.000082 -0.000066 0
0.000096 -0.000000 0
0.000099 0.000083 0
0.000083 0.000173 0
0.000046 0.000246 0
-0.000006 0.000277 0
-0.000058 0.000257 0
-0.000096 0.000198 0
-0.000114 0.000124 0
-0.000116 0.000058 0
-0.000108 0.000011 0
-0.000096 -0.000017 0
-0.000085 -0.000029 0
-0.000075 -0.000029 0
-0.000068 -0.000021 0
-0.000065 -0.000009 0
-0.000064 -0.000002 0
0.000000 -0.000001 0
0.000014 -0.000157 0
0.000032 -0.000156 0
0.000050 -0.000129 0
0.000067 -0.000081 0
0.000080 -0.000009 0
0.000083 0.000088 0
0.000072 0.000196 0
0.000041 0.000287 0
-0.000003 0.000327 0
-0.000047 0.000300 0
-0.000077 0.000224 0
-0.000090 0.000132 0
-0.000089 0.000054 0
-0.000081 0.000000 0
-0.000070 -0.000029 0
-0.000060 -0.000039 0
-0.000052 -0.000037 0
-0.000046 -0.000026 0
-0.000043 -0.000011 0
-0.000043 -0.000003 0
0.000000 -0.000000 0
0.000008 -0.000170 0
0.000019 -0.000170 0
0.000029 -0.000143 0
0.000038 -0.000095 0
0.000045 -0.000018 0
0.000048 0.000089 0
0.000043 0.000213 0
0.000026 0.000319 0
0.000001 0.000365 0
-0.000024 0.000333 0
-0.000041 0.000242 0
-0.000048 0.000136 0
-0.000046 0.000049 0
-0.000041 -0.000009 0
-0.000034 -0.000038 0
-0.000028 -0.000047 0
-0.000023 -0.000043 0
-0.000019 -0.000030 0
-0.000018 -0.000012 0
-0.000018 -0.000003 0
0.000000 0.000000 0
0.000000 -0.000174 0
0.000001 -0.000175 0
0.000001 -0.000149 0
0.000001 -0.000101 0
0.000001 -0.000022 0
0.000001 0.000089 0
0.000002 0.000219 0
0.000003 0.000331 0
0.000004 0.000379 0
0.000006 0.000344 0
0.000007 0.000248 0
0.000007 0.000137 0
0.000008 0.000046 0
0.000008 -0.000013 0
0.000009 -0.000042 0
0.000009 -0.000051 0
0.000009 -0.000045 0
0.000010 -0.000032 0
0.000010 -0.000013 0
0.000010 -0.000003 0
0.000000 0.000000 0
-0.000008 -0.000170 0
-0.000017 -0.000171 0
-0.000027 -0.000144 0
-0.000036 -0.000096 0
-0.000044 -0.000018 0
-0.000046 0.000089 0
-0.000039 0.000212 0
-0.000020 0.000317 0
0.000008 0.000363 0
0.000035 0.000330 0
0.000054 0.000240 0
0.000062 0.000135 0
0.000062 0.000048 0
0.000057 -0.000010 0
0.000051 -0.000039 0
0.000046 -0.000048 0
0.000042 -0.000044 0
0.000039 -0.000031 0
0.000038 -0.000012 0
0.000038 -0.000003 0
0.000000 -0.000000 0
-0.000015 -0.000157 0
-0.000032 -0.000157 0
-0.000049 -0.000130 0
-0.000065 -0.000083 0
-0.000077 -0.000011 0
-0.000080 0.000085 0
-0.000068 0.000193 0
-0.000036 0.000284 0
0.000010 0.000323 0
0.000056 0.000297 0
0.000089 0.000221 0
0.000104 0.000130 0
0.000105 0.000051 0
0.000097 -0.000002 0
0.000088 -0.000031 0
0.000079 -0.000041 0
0.000071 -0.000039 0
0.000066 -0.000028 0
0.000064 -0.000011 0
0.000064 -0.000002 0
0.000000 -0.000000 0
-0.000020 -0.000138 0
-0.000041 -0.000136 0
-0.000063 -0.000110 0
-0.000082 -0.000067 0
-0.000095 -0.000004 0
-0.000097 0.000078 0
-0.000079 0.000166 0
-0.000041 0.000239 0
0.000013 0.000271 0
0.000067 0.000252 0
0.000107 0.000193 0
0.000127 0.000120 0
0.000131 0.000054 0
0.000125 0.000007 0
0.000115 -0.000021 0
0.000105 -0.000032 0
0.000096 -0.000032 0
0.000090 -0.000023 0
0.000087 -0.000010 0
0.000087 -0.000002 0
0.000000 0.000000 0
-0.000022 -0.000116 0
-0.000046 -0.000112 0
-0.000069 -0.000089 0
-0.000088 -0.000051 0
-0.000099 0.000003 0
-0.000098 0.000068 0
-0.000078 0.000137 0
-0.000038 0.000191 0
0.000015 0.000216 0
0.000069 0.000203 0
0.000111 0.000161 0
0.000135 0.000105 0
0.000143 0.000054 0
0.000141 0.000014 0
0.000133 -0.000011 0
0.000124 -0.000022 0
0.000115 -0.000024 0
0.000109 -0.000018 0
0.000106 -0.000008 0
0.000106 -0.000002 0
0.000000 -0.000000 0
-0.000023 -0.000092 0
-0.000047 -0.000088 0
-0.000070 -0.000068 0
-0.000087 -0.000036 0
-0.000095 0.000006 0
-0.000091 0.000056 0
-0.000070 0.000107 0
-0.000032 0.000146 0
0.000017 0.000164 0
0.000066 0.000156 0
0.000107 0.000127 0
0.000133 0.000087 0
0.000145 0.000048 0
0.000147 0.000017 0
0.000143 -0.000004 0
0.000136 -0.000014 0
0.000129 -0.000017 0
0.000124 -0.000014 0
0.000121 -0.000006 0
0.000121 -0.000002 0
0.000000 -0.000000 0
-0.000023 -0.000069 0
-0.000047 -0.000065 0
-0.000068 -0.000049 0
-0.000083 -0.000025 0
-0.000089 0.000007 0
-0.000082 0.000043 0
-0.000061 0.000078 0
-0.000026 0.000105 0
0.000018 0.000118 0
0.000063 0.000113 0
0.000101 0.000094 0
0.000128 0.000067 0
0.000144 0.000039 0
0.000150 0.000016 0
0.000149 0.000000 0
0.000145 -0.000009 0
0.000139 -0.000012 0
0.000135 -0.000010 0
0.000132 -0.000004 0
0.000132 -0.000001 0
0.000000 -0.000000 0
-0.000023 -0.000045 0
-0.000047 -0.000043 0
-0.000067 -0.000032 0
-0.000081 -0.000015 0
-0.000084 0.000005 0
-0.000076 0.000028 0
-0.000055 0.000050 0
-0.000022 0.000067 0
0.000018 0.000075 0
0.000060 0.000073 0
0.000096 0.000061 0
0.000124 0.000045 0
0.000142 0.000027 0
0.000151 0.000012 0
0.000152 0.000001 0
0.000150 -0.000005 0
0.000146 -0.000007 0
0.000142 -0.000006 0
0.000140 -0.000003 0
0.000139 -0.000001 0
0.000000 0.000000 0
-0.000022 -0.000022 0
-0.000046 -0.000020 0
-0.000065 -0.000015 0
-0.000077 -0.000007 0
-0.000080 0.000002 0
-0.000072 0.000013 0
-0.000052 0.000024 0
-0.000022 0.000032 0
0.000015 0.000035 0
0.000054 0.000034 0
0.000088 0.000029 0
0.000115 0.000021 0
0.000133 0.000013 0
0.000142 0.000006 0
0.000145 0.000001 0
0.000144 -0.000002 0
0.000140 -0.000004 0
0.000136 -0.000003 0
0.000134 -0.000001 0
0.000133 -0.000000 0
0.000000 0.000000 0
-0.000000 0.000000 0
-0.000000 0.000000 0
-0.000000 0.000000 0
-0.000000 0.000000 0
-0.000000 0.000000 0
-0.000000 0.000000 0
-0.000000 0.000000 0
-0.000000 0.000000 0
-0.000000 0.000000 0
0.000000 0.000000 0
0.000000 0.000000 0
0.000000 0.000000 0
0.000000 0.000000 0
0.000000 0.000000 0
0.000000 0.000000 0
0.000000 0.000000 0
0.000000 0.000000 0
0.000000 0.000000 0
0.000000 0.000000 0
0.000000 0.000000 0

CELL_DATA 400 
SCALARS pressure float 1 
LOOKUP_TABLE default 
0.242583
0.242626
0.242655
0.242652
0.242627
0.242600
0.242584
0.242584
0.242595
0.242609
0.242620
0.242625
0.242624
0.242621
0.242618
0.242616
0.242616
0.242617
0.242618
0.242619
0.219631
0.219631
0.219615
0.219599
0.219593
0.219599
0.219610
0.219620
0.219625
0.219624
0.219621
0.219616
0.219613
0.219613
0.219614
0.219615
0.219617
0.219618
0.219619
0.219620
0.196628
0.196601
0.196591
0.196599
0.196617
0.196632
0.196636
0.196630
0.196621
0.196612
0.196607
0.196607
0.196610
0.196613
0.196616
0.196618
0.196619
0.196619
0.196620
0.196620
0.173607
0.173598
0.173608
0.173625
0.173635
0.173634
0.173625
0.173614
0.173606
0.173604
0.173606
0.173611
0.173615
0.173618
0.173619
0.173619
0.173619
0.173619
0.173619
0.173620
0.150610
0.150616
0.150622
0.150624
0.150621
0.150615
0.150610
0.150609
0.150610
0.150612
0.150615
0.150617
0.150617
0.150617
0.150617
0.150618
0.150618
0.150619
0.150619
0.150620
0.127624
0.127622
0.127615
0.127609
0.127608
0.127611
0.127615
0.127618
0.127619
0.127619
0.127617
0.127615
0.127615
0.127615
0.127616
0.127617
0.127618
0.127619
0.127620
0.127620
0.104626
0.104615
0.104608
0.104608
0.104613
0.104620
0.104623
0.104623
0.104620
0.104616
0.104614
0.104613
0.104614
0.104616
0.104617
0.104619
0.104619
0.104620
0.104620
0.104621
0.081620
0.081614
0.081614
0.081617
0.081620
0.081622
0.081621
0.081618
0.081616
0.081614
0.081614
0.081615
0.081616
0.081618
0.081619
0.081619
0.081620
0.081620
0.081621
0.081621
0.058619
0.058621
0.058621
0.058620
0.058618
0.058617
0.058617
0.058617
0.058617
0.058617
0.058618
0.058618
0.058619
0.058619
0.058619
0.058620
0.058620
0.058621
0.058621
0.058621
0.035624
0.035624
0.035621
0.035617
0.035616
0.035617
0.035619
0.035621
0.035621
0.035621
0.035621
0.035620
0.035620
0.035620
0.035620
0.035621
0.035621
0.035621
0.035622
0.035622
0.012626
0.012623
0.012620
0.012618
0.012619
0.012621
0.012623
0.012624
0.012624
0.012623
0.012622
0.012621
0.012621
0.012621
0.012622
0.012622
0.012622
0.012622
0.012622
0.012622
-0.010376
-0.010376
-0.010377
-0.010377
-0.010377
-0.010376
-0.010376
-0.010375
-0.010375
-0.010376
-0.010376
-0.010376
-0.010377
-0.010377
-0.010377
-0.010377
-0.010377
-0.010377
-0.010377
-0.010377
-0.033375
-0.033374
-0.033374
-0.033374
-0.033375
-0.033376
-0.033375
-0.033374
-0.033373
-0.033373
-0.033373
-0.033374
-0.033374
-0.033375
-0.033375
-0.033376
-0.033376
-0.033376
-0.033377
-0.033377
-0.056374
-0.056372
-0.056372
-0.056374
-0.056375
-0.056374
-0.056373
-0.056372
-0.056371
-0.056371
-0.056371
-0.056372
-0.056373
-0.056374
-0.056374
-0.056375
-0.056375
-0.056376
-0.056376
-0.056377
-0.079372
-0.079372
-0.079372
-0.079373
-0.079373
-0.079372
-0.079371
-0.079370
-0.079369
-0.079369
-0.079370
-0.079371
-0.079372
-0.079372
-0.079373
-0.079374
-0.079374
-0.079375
-0.079376
-0.079376
-0.102372
-0.102372
-0.102371
-0.102371
-0.102371
-0.102370
-0.102370
-0.102370
-0.102369
-0.102369
-0.102369
-0.102370
-0.102370
-0.102371
-0.102372
-0.102373
-0.102374
-0.102374
-0.102375
-0.102376
-0.125372
-0.125371
-0.125370
-0.125369
-0.125370
-0.125370
-0.125370
-0.125369
-0.125369
-0.125368
-0.125368
-0.125369
-0.125369
-0.125370
-0.125371
-0.125372
-0.125373
-0.125374
-0.125375
-0.125375
-0.148371
-0.148370
-0.148369
-0.148369
-0.148369
-0.148369
-0.148369
-0.148368
-0.148368
-0.148367
-0.148368
-0.148368
-0.148369
-0.148370
-0.148371
-0.148372
-0.148373
-0.148373
-0.148374
-0.148375
-0.171371
-0.171370
-0.171369
-0.171369
-0.171369
-0.171368
-0.171368
-0.171367
-0.171367
-0.171367
-0.171367
-0.171368
-0.171368
-0.171369
-0.171370
-0.171371
-0.171372
-0.171373
-0.171374
-0.171375
-0.194371
-0.194370
-0.194369
-0.194368
-0.194368
-0.194367
-0.194367
-0.194367
-0.194366
-0.194366
-0.194366
-0.194367
-0.194368
-0.194368
-0.194369
-0.194371
-0.194372
-0.194373
-0.194374
-0.194374

SCALARS temperature float 1 
LOOKUP_TABLE default 
0.000016
0.000134
0.000363
0.000686
0.001076
0.001496
0.001901
0.002245
0.002487
0.002602
0.002587
0.002457
0.002243
0.001982
0.001710
0.001456
0.001239
0.001072
0.000960
0.000903
0.000018
0.000148
0.000400
0.000757
0.001190
0.001658
0.002111
0.002494
0.002762
0.002885
0.002860
0.002705
0.002458
0.002162
0.001856
0.001572
0.001333
0.001149
0.001026
0.000965
0.000021
0.000177
0.000479
0.000909
0.001435
0.002007
0.002562
0.003033
0.003356
0.003495
0.003445
0.003234
0.002911
0.002533
0.002153
0.001807
0.001519
0.001300
0.001155
0.001083
0.000027
0.000223
0.000608
0.001161
0.001844
0.002597
0.003334
0.003959
0.004381
0.004543
0.004440
0.004119
0.003656
0.003135
0.002624
0.002171
0.001803
0.001528
0.001348
0.001259
0.000036
0.000292
0.000798
0.001537
0.002465
0.003506
0.004541
0.005422
0.006005
0.006196
0.005992
0.005475
0.004772
0.004013
0.003295
0.002679
0.002191
0.001834
0.001604
0.001491
0.000047
0.000385
0.001060
0.002062
0.003349
0.004825
0.006325
0.007616
0.008455
0.008680
0.008289
0.007434
0.006339
0.005208
0.004182
0.003332
0.002678
0.002211
0.001915
0.001772
0.000062
0.000502
0.001393
0.002741
0.004520
0.006622
0.008818
0.010743
0.011982
0.012241
0.011522
0.010115
0.008408
0.006730
0.005273
0.004111
0.003244
0.002642
0.002266
0.002087
0.000079
0.000635
0.001777
0.003545
0.005946
0.008878
0.012051
0.014906
0.016740
0.017027
0.015779
0.013526
0.010937
0.008515
0.006506
0.004963
0.003848
0.003092
0.002629
0.002410
0.000095
0.000769
0.002170
0.004384
0.007478
0.011395
0.015789
0.019867
0.022503
0.022807
0.020808
0.017411
0.013697
0.010382
0.007747
0.005796
0.004426
0.003517
0.002967
0.002710
0.000109
0.000881
0.002502
0.005107
0.008836
0.013701
0.019338
0.024720
0.028234
0.028547
0.025705
0.021070
0.016195
0.012011
0.008798
0.006487
0.004899
0.003862
0.003242
0.002953
0.000117
0.000948
0.002700
0.005541
0.009661
0.015133
0.021596
0.027874
0.032003
0.032326
0.028894
0.023406
0.017757
0.013016
0.009444
0.006914
0.005196
0.004081
0.003418
0.003110
0.000118
0.000955
0.002718
0.005572
0.009704
0.015183
0.021646
0.027928
0.032070
0.032405
0.028987
0.023513
0.017871
0.013127
0.009545
0.007002
0.005272
0.004147
0.003477
0.003165
0.000112
0.000902
0.002557
0.005205
0.008975
0.013872
0.019530
0.024935
0.028488
0.028839
0.026028
0.021416
0.016548
0.012348
0.009102
0.006752
0.005127
0.004059
0.003418
0.003118
0.000100
0.000806
0.002267
0.004561
0.007741
0.011736
0.016198
0.020342
0.023048
0.023406
0.021438
0.018051
0.014319
0.010960
0.008260
0.006239
0.004805
0.003845
0.003260
0.002983
0.000086
0.000690
0.001923
0.003815
0.006358
0.009434
0.012741
0.015717
0.017652
0.018004
0.016776
0.014503
0.011857
0.009348
0.007235
0.005587
0.004379
0.003550
0.003036
0.002790
0.000072
0.000576
0.001591
0.003113
0.005098
0.007416
0.009819
0.011924
0.013297
0.013629
0.012916
0.011452
0.009641
0.007827
0.006221
0.004915
0.003925
0.003226
0.002785
0.002572
0.000059
0.000479
0.001313
0.002539
0.004095
0.005862
0.007640
0.009169
0.010178
0.010484
0.010083
0.009136
0.007888
0.006570
0.005348
0.004315
0.003506
0.002920
0.002544
0.002360
0.000050
0.000406
0.001106
0.002119
0.003380
0.004781
0.006164
0.007340
0.008128
0.008411
0.008182
0.007538
0.006637
0.005640
0.004680
0.003841
0.003166
0.002667
0.002342
0.002181
0.000044
0.000358
0.000971
0.001851
0.002932
0.004116
0.005272
0.006249
0.006913
0.007179
0.007038
0.006556
0.005848
0.005039
0.004237
0.003520
0.002931
0.002489
0.002197
0.002053
0.000041
0.000334
0.000906
0.001721
0.002718
0.003802
0.004854
0.005743
0.006352
0.006609
0.006504
0.006093
0.005470
0.004745
0.004017
0.003357
0.002810
0.002397
0.002122
0.001986


SCALARS Species_1 float 1 
LOOKUP_TABLE default 
0.000601
0.001798
0.002985
0.004152
0.005288
0.006383
0.007422
0.008393
0.009281
0.010075
0.010766
0.011350
0.011828
0.012204
0.012488
0.012693
0.012833
0.012923
0.012975
0.012999
0.000602
0.001802
0.002990
0.004159
0.005297
0.006393
0.007434
0.008406
0.009295
0.010090
0.010782
0.011368
0.011846
0.012224
0.012509
0.012715
0.012856
0.012947
0.013000
0.013024
0.000604
0.001807
0.003000
0.004172
0.005313
0.006413
0.007456
0.008430
0.009322
0.010119
0.010813
0.011400
0.011881
0.012260
0.012546
0.012754
0.012896
0.012987
0.013041
0.013065
0.000606
0.001814
0.003010
0.004186
0.005331
0.006433
0.007480
0.008457
0.009351
0.010151
0.010847
0.011436
0.011918
0.012298
0.012586
0.012795
0.012938
0.013031
0.013084
0.013109
0.000607
0.001818
0.003017
0.004195
0.005342
0.006447
0.007495
0.008474
0.009370
0.010170
0.010868
0.011458
0.011941
0.012323
0.012612
0.012821
0.012965
0.013058
0.013112
0.013137
0.000607
0.001817
0.003016
0.004193
0.005339
0.006443
0.007490
0.008468
0.009362
0.010162
0.010859
0.011449
0.011932
0.012313
0.012602
0.012812
0.012956
0.013049
0.013104
0.013129
0.000604
0.001809
0.003001
0.004173
0.005313
0.006411
0.007453
0.008425
0.009315
0.010111
0.010804
0.011391
0.011871
0.012251
0.012539
0.012748
0.012892
0.012985
0.013039
0.013064
0.000598
0.001790
0.002970
0.004129
0.005258
0.006343
0.007374
0.008336
0.009216
0.010003
0.010689
0.011269
0.011744
0.012120
0.012405
0.012612
0.012755
0.012848
0.012902
0.012927
0.000588
0.001759
0.002919
0.004058
0.005167
0.006234
0.007247
0.008192
0.009056
0.009830
0.010503
0.011073
0.011540
0.011910
0.012190
0.012394
0.012535
0.012627
0.012681
0.012705
0.000573
0.001716
0.002847
0.003959
0.005040
0.006081
0.007068
0.007990
0.008833
0.009587
0.010244
0.010800
0.011255
0.011616
0.011890
0.012089
0.012227
0.012317
0.012370
0.012394
0.000555
0.001661
0.002756
0.003831
0.004878
0.005885
0.006841
0.007732
0.008548
0.009277
0.009913
0.010451
0.010892
0.011241
0.011507
0.011700
0.011835
0.011922
0.011974
0.011997
0.000533
0.001595
0.002647
0.003680
0.004685
0.005652
0.006570
0.007426
0.008209
0.008909
0.009520
0.010036
0.010460
0.010796
0.011052
0.011239
0.011369
0.011453
0.011503
0.011526
0.000508
0.001521
0.002524
0.003510
0.004469
0.005391
0.006266
0.007083
0.007830
0.008498
0.009080
0.009574
0.009979
0.010300
0.010545
0.010724
0.010848
0.010930
0.010978
0.011000
0.000482
0.001443
0.002395
0.003330
0.004239
0.005115
0.005945
0.006720
0.007429
0.008063
0.008616
0.009085
0.009470
0.009775
0.010009
0.010179
0.010298
0.010376
0.010422
0.010443
0.000456
0.001365
0.002265
0.003149
0.004009
0.004837
0.005623
0.006356
0.007027
0.007627
0.008151
0.008595
0.008960
0.009250
0.009472
0.009634
0.009747
0.009821
0.009865
0.009886
0.000431
0.001291
0.002142
0.002978
0.003792
0.004575
0.005318
0.006011
0.006646
0.007215
0.007711
0.008132
0.008478
0.008754
0.008964
0.009119
0.009226
0.009297
0.009339
0.009359
0.000409
0.001225
0.002032
0.002826
0.003599
0.004342
0.005048
0.005707
0.006310
0.006850
0.007322
0.007723
0.008052
0.008315
0.008516
0.008663
0.008766
0.008834
0.008874
0.008893
0.000391
0.001172
0.001944
0.002704
0.003443
0.004154
0.004830
0.005460
0.006038
0.006556
0.007008
0.007392
0.007708
0.007960
0.008153
0.008295
0.008394
0.008459
0.008498
0.008516
0.000379
0.001134
0.001882
0.002618
0.003333
0.004022
0.004677
0.005287
0.005847
0.006349
0.006787
0.007159
0.007467
0.007711
0.007899
0.008037
0.008133
0.008196
0.008234
0.008252
0.000372
0.001115
0.001850
0.002573
0.003277
0.003954
0.004598
0.005198
0.005749
0.006242
0.006673
0.007040
0.007342
0.007583
0.007768
0.007903
0.007998
0.008061
0.008098
0.008115


SCALARS Species_2 float 1 
LOOKUP_TABLE default 
0.000299
0.000884
0.001433
0.001928
0.002350
0.002687
0.002934
0.003087
0.003150
0.003133
0.003046
0.002904
0.002723
0.002520
0.002312
0.002113
0.001937
0.001795
0.001696
0.001645
0.000308
0.000910
0.001477
0.001986
0.002420
0.002768
0.003022
0.003180
0.003246
0.003228
0.003139
0.002993
0.002807
0.002599
0.002385
0.002180
0.002000
0.001854
0.001752
0.001699
0.000325
0.000962
0.001561
0.002100
0.002559
0.002927
0.003195
0.003362
0.003432
0.003413
0.003319
0.003166
0.002970
0.002750
0.002524
0.002308
0.002117
0.001963
0.001855
0.001800
0.000351
0.001038