# vtk DataFile Version 2.0
generated by CFD-lab course output (written by Tobias Neckel) 
ASCII

DATASET STRUCTURED_GRID
DIMENSIONS  21 21 1 
POINTS 441 float

0.000000 0.000000 0
0.100000 0.000000 0
0.200000 0.000000 0
0.300000 0.000000 0
0.400000 0.000000 0
0.500000 0.000000 0
0.600000 0.000000 0
0.700000 0.000000 0
0.800000 0.000000 0
0.900000 0.000000 0
1.000000 0.000000 0
1.100000 0.000000 0
1.200000 0.000000 0
1.300000 0.000000 0
1.400000 0.000000 0
1.500000 0.000000 0
1.600000 0.000000 0
1.700000 0.000000 0
1.800000 0.000000 0
1.900000 0.000000 0
2.000000 0.000000 0
0.000000 0.100000 0
0.100000 0.100000 0
0.200000 0.100000 0
0.300000 0.100000 0
0.400000 0.100000 0
0.500000 0.100000 0
0.600000 0.100000 0
0.700000 0.100000 0
0.800000 0.100000 0
0.900000 0.100000 0
1.000000 0.100000 0
1.100000 0.100000 0
1.200000 0.100000 0
1.300000 0.100000 0
1.400000 0.100000 0
1.500000 0.100000 0
1.600000 0.100000 0
1.700000 0.100000 0
1.800000 0.100000 0
1.900000 0.100000 0
2.000000 0.100000 0
0.000000 0.200000 0
0.100000 0.200000 0
0.200000 0.200000 0
0.300000 0.200000 0
0.400000 0.200000 0
0.500000 0.200000 0
0.600000 0.200000 0
0.700000 0.200000 0
0.800000 0.200000 0
0.900000 0.200000 0
1.000000 0.200000 0
1.100000 0.200000 0
1.200000 0.200000 0
1.300000 0.200000 0
1.400000 0.200000 0
1.500000 0.200000 0
1.600000 0.200000 0
1.700000 0.200000 0
1.800000 0.200000 0
1.900000 0.200000 0
2.000000 0.200000 0
0.000000 0.300000 0
0.100000 0.300000 0
0.200000 0.300000 0
0.300000 0.300000 0
0.400000 0.300000 0
0.500000 0.300000 0
0.600000 0.300000 0
0.700000 0.300000 0
0.800000 0.300000 0
0.900000 0.300000 0
1.000000 0.300000 0
1.100000 0.300000 0
1.200000 0.300000 0
1.300000 0.300000 0
1.400000 0.300000 0
1.500000 0.300000 0
1.600000 0.300000 0
1.700000 0.300000 0
1.800000 0.300000 0
1.900000 0.300000 0
2.000000 0.300000 0
0.000000 0.400000 0
0.100000 0.400000 0
0.200000 0.400000 0
0.300000 0.400000 0
0.400000 0.400000 0
0.500000 0.400000 0
0.600000 0.400000 0
0.700000 0.400000 0
0.800000 0.400000 0
0.900000 0.400000 0
1.000000 0.400000 0
1.100000 0.400000 0
1.200000 0.400000 0
1.300000 0.400000 0
1.400000 0.400000 0
1.500000 0.400000 0
1.600000 0.400000 0
1.700000 0.400000 0
1.800000 0.400000 0
1.900000 0.400000 0
2.000000 0.400000 0
0.000000 0.500000 0
0.100000 0.500000 0
0.200000 0.500000 0
0.300000 0.500000 0
0.400000 0.500000 0
0.500000 0.500000 0
0.600000 0.500000 0
0.700000 0.500000 0
0.800000 0.500000 0
0.900000 0.500000 0
1.000000 0.500000 0
1.100000 0.500000 0
1.200000 0.500000 0
1.300000 0.500000 0
1.400000 0.500000 0
1.500000 0.500000 0
1.600000 0.500000 0
1.700000 0.500000 0
1.800000 0.500000 0
1.900000 0.500000 0
2.000000 0.500000 0
0.000000 0.600000 0
0.100000 0.600000 0
0.200000 0.600000 0
0.300000 0.600000 0
0.400000 0.600000 0
0.500000 0.600000 0
0.600000 0.600000 0
0.700000 0.600000 0
0.800000 0.600000 0
0.900000 0.600000 0
1.000000 0.600000 0
1.100000 0.600000 0
1.200000 0.600000 0
1.300000 0.600000 0
1.400000 0.600000 0
1.500000 0.600000 0
1.600000 0.600000 0
1.700000 0.600000 0
1.800000 0.600000 0
1.900000 0.600000 0
2.000000 0.600000 0
0.000000 0.700000 0
0.100000 0.700000 0
0.200000 0.700000 0
0.300000 0.700000 0
0.400000 0.700000 0
0.500000 0.700000 0
0.600000 0.700000 0
0.700000 0.700000 0
0.800000 0.700000 0
0.900000 0.700000 0
1.000000 0.700000 0
1.100000 0.700000 0
1.200000 0.700000 0
1.300000 0.700000 0
1.400000 0.700000 0
1.500000 0.700000 0
1.600000 0.700000 0
1.700000 0.700000 0
1.800000 0.700000 0
1.900000 0.700000 0
2.000000 0.700000 0
0.000000 0.800000 0
0.100000 0.800000 0
0.200000 0.800000 0
0.300000 0.800000 0
0.400000 0.800000 0
0.500000 0.800000 0
0.600000 0.800000 0
0.700000 0.800000 0
0.800000 0.800000 0
0.900000 0.800000 0
1.000000 0.800000 0
1.100000 0.800000 0
1.200000 0.800000 0
1.300000 0.800000 0
1.400000 0.800000 0
1.500000 0.800000 0
1.600000 0.800000 0
1.700000 0.800000 0
1.800000 0.800000 0
1.900000 0.800000 0
2.000000 0.800000 0
0.000000 0.900000 0
0.100000 0.900000 0
0.200000 0.900000 0
0.300000 0.900000 0
0.400000 0.900000 0
0.500000 0.900000 0
0.600000 0.900000 0
0.700000 0.900000 0
0.800000 0.900000 0
0.900000 0.900000 0
1.000000 0.900000 0
1.100000 0.900000 0
1.200000 0.900000 0
1.300000 0.900000 0
1.400000 0.900000 0
1.500000 0.900000 0
1.600000 0.900000 0
1.700000 0.900000 0
1.800000 0.900000 0
1.900000 0.900000 0
2.000000 0.900000 0
0.000000 1.000000 0
0.100000 1.000000 0
0.200000 1.000000 0
0.300000 1.000000 0
0.400000 1.000000 0
0.500000 1.000000 0
0.600000 1.000000 0
0.700000 1.000000 0
0.800000 1.000000 0
0.900000 1.000000 0
1.000000 1.000000 0
1.100000 1.000000 0
1.200000 1.000000 0
1.300000 1.000000 0
1.400000 1.000000 0
1.500000 1.000000 0
1.600000 1.000000 0
1.700000 1.000000 0
1.800000 1.000000 0
1.900000 1.000000 0
2.000000 1.000000 0
0.000000 1.100000 0
0.100000 1.100000 0
0.200000 1.100000 0
0.300000 1.100000 0
0.400000 1.100000 0
0.500000 1.100000 0
0.600000 1.100000 0
0.700000 1.100000 0
0.800000 1.100000 0
0.900000 1.100000 0
1.000000 1.100000 0
1.100000 1.100000 0
1.200000 1.100000 0
1.300000 1.100000 0
1.400000 1.100000 0
1.500000 1.100000 0
1.600000 1.100000 0
1.700000 1.100000 0
1.800000 1.100000 0
1.900000 1.100000 0
2.000000 1.100000 0
0.000000 1.200000 0
0.100000 1.200000 0
0.200000 1.200000 0
0.300000 1.200000 0
0.400000 1.200000 0
0.500000 1.200000 0
0.600000 1.200000 0
0.700000 1.200000 0
0.800000 1.200000 0
0.900000 1.200000 0
1.000000 1.200000 0
1.100000 1.200000 0
1.200000 1.200000 0
1.300000 1.200000 0
1.400000 1.200000 0
1.500000 1.200000 0
1.600000 1.200000 0
1.700000 1.200000 0
1.800000 1.200000 0
1.900000 1.200000 0
2.000000 1.200000 0
0.000000 1.300000 0
0.100000 1.300000 0
0.200000 1.300000 0
0.300000 1.300000 0
0.400000 1.300000 0
0.500000 1.300000 0
0.600000 1.300000 0
0.700000 1.300000 0
0.800000 1.300000 0
0.900000 1.300000 0
1.000000 1.300000 0
1.100000 1.300000 0
1.200000 1.300000 0
1.300000 1.300000 0
1.400000 1.300000 0
1.500000 1.300000 0
1.600000 1.300000 0
1.700000 1.300000 0
1.800000 1.300000 0
1.900000 1.300000 0
2.000000 1.300000 0
0.000000 1.400000 0
0.100000 1.400000 0
0.200000 1.400000 0
0.300000 1.400000 0
0.400000 1.400000 0
0.500000 1.400000 0
0.600000 1.400000 0
0.700000 1.400000 0
0.800000 1.400000 0
0.900000 1.400000 0
1.000000 1.400000 0
1.100000 1.400000 0
1.200000 1.400000 0
1.300000 1.400000 0
1.400000 1.400000 0
1.500000 1.400000 0
1.600000 1.400000 0
1.700000 1.400000 0
1.800000 1.400000 0
1.900000 1.400000 0
2.000000 1.400000 0
0.000000 1.500000 0
0.100000 1.500000 0
0.200000 1.500000 0
0.300000 1.500000 0
0.400000 1.500000 0
0.500000 1.500000 0
0.600000 1.500000 0
0.700000 1.500000 0
0.800000 1.500000 0
0.900000 1.500000 0
1.000000 1.500000 0
1.100000 1.500000 0
1.200000 1.500000 0
1.300000 1.500000 0
1.400000 1.500000 0
1.500000 1.500000 0
1.600000 1.500000 0
1.700000 1.500000 0
1.800000 1.500000 0
1.900000 1.500000 0
2.000000 1.500000 0
0.000000 1.600000 0
0.100000 1.600000 0
0.200000 1.600000 0
0.300000 1.600000 0
0.400000 1.600000 0
0.500000 1.600000 0
0.600000 1.600000 0
0.700000 1.600000 0
0.800000 1.600000 0
0.900000 1.600000 0
1.000000 1.600000 0
1.100000 1.600000 0
1.200000 1.600000 0
1.300000 1.600000 0
1.400000 1.600000 0
1.500000 1.600000 0
1.600000 1.600000 0
1.700000 1.600000 0
1.800000 1.600000 0
1.900000 1.600000 0
2.000000 1.600000 0
0.000000 1.700000 0
0.100000 1.700000 0
0.200000 1.700000 0
0.300000 1.700000 0
0.400000 1.700000 0
0.500000 1.700000 0
0.600000 1.700000 0
0.700000 1.700000 0
0.800000 1.700000 0
0.900000 1.700000 0
1.000000 1.700000 0
1.100000 1.700000 0
1.200000 1.700000 0
1.300000 1.700000 0
1.400000 1.700000 0
1.500000 1.700000 0
1.600000 1.700000 0
1.700000 1.700000 0
1.800000 1.700000 0
1.900000 1.700000 0
2.000000 1.700000 0
0.000000 1.800000 0
0.100000 1.800000 0
0.200000 1.800000 0
0.300000 1.800000 0
0.400000 1.800000 0
0.500000 1.800000 0
0.600000 1.800000 0
0.700000 1.800000 0
0.800000 1.800000 0
0.900000 1.800000 0
1.000000 1.800000 0
1.100000 1.800000 0
1.200000 1.800000 0
1.300000 1.800000 0
1.400000 1.800000 0
1.500000 1.800000 0
1.600000 1.800000 0
1.700000 1.800000 0
1.800000 1.800000 0
1.900000 1.800000 0
2.000000 1.800000 0
0.000000 1.900000 0
0.100000 1.900000 0
0.200000 1.900000 0
0.300000 1.900000 0
0.400000 1.900000 0
0.500000 1.900000 0
0.600000 1.900000 0
0.700000 1.900000 0
0.800000 1.900000 0
0.900000 1.900000 0
1.000000 1.900000 0
1.100000 1.900000 0
1.200000 1.900000 0
1.300000 1.900000 0
1.400000 1.900000 0
1.500000 1.900000 0
1.600000 1.900000 0
1.700000 1.900000 0
1.800000 1.900000 0
1.900000 1.900000 0
2.000000 1.900000 0
0.000000 2.000000 0
0.100000 2.000000 0
0.200000 2.000000 0
0.300000 2.000000 0
0.400000 2.000000 0
0.500000 2.000000 0
0.600000 2.000000 0
0.700000 2.000000 0
0.800000 2.000000 0
0.900000 2.000000 0
1.000000 2.000000 0
1.100000 2.000000 0
1.200000 2.000000 0
1.300000 2.000000 0
1.400000 2.000000 0
1.500000 2.000000 0
1.600000 2.000000 0
1.700000 2.000000 0
1.800000 2.000000 0
1.900000 2.000000 0
2.000000 2.000000 0
POINT_DATA 441 

VECTORS velocity float
0.000000 0.000000 0
0.000009 0.000000 0
0.000008 0.000000 0
0.000001 0.000000 0
-0.000004 0.000000 0
-0.000006 0.000000 0
-0.000005 0.000000 0
-0.000001 0.000000 0
0.000002 0.000000 0
0.000003 0.000000 0
0.000003 0.000000 0
0.000001 0.000000 0
-0.000001 0.000000 0
-0.000001 0.000000 0
-0.000001 0.000000 0
-0.000000 0.000000 0
-0.000000 0.000000 0
0.000000 0.000000 0
0.000000 0.000000 0
0.000000 0.000000 0
-0.000000 0.000000 0
0.000000 0.000010 0
0.000007 0.000014 0
0.000007 0.000005 0
0.000002 -0.000011 0
-0.000003 -0.000020 0
-0.000005 -0.000016 0
-0.000005 -0.000006 0
-0.000001 0.000005 0
0.000002 0.000012 0
0.000003 0.000011 0
0.000002 0.000006 0
0.000001 0.000000 0
-0.000001 -0.000004 0
-0.000001 -0.000005 0
-0.000001 -0.000004 0
-0.000001 -0.000002 0
-0.000000 -0.000000 0
-0.000000 0.000000 0
-0.000000 0.000000 0
-0.000000 0.000000 0
-0.000000 -0.000000 0
0.000000 0.000001 0
-0.000000 -0.000000 0
-0.000004 -0.000009 0
-0.000003 -0.000010 0
0.000000 -0.000004 0
0.000002 0.000004 0
0.000003 0.000008 0
0.000002 0.000008 0
0.000000 0.000004 0
-0.000002 -0.000001 0
-0.000002 -0.000004 0
-0.000002 -0.000005 0
-0.000001 -0.000003 0
-0.000000 -0.000001 0
0.000000 0.000001 0
0.000000 0.000001 0
-0.000000 0.000001 0
-0.000000 0.000000 0
-0.000000 -0.000000 0
-0.000000 -0.000000 0
-0.000000 -0.000000 0
0.000000 -0.000002 0
-0.000006 -0.000004 0
-0.000005 -0.000002 0
0.000001 0.000003 0
0.000004 0.000005 0
0.000004 0.000003 0
0.000002 0.000000 0
-0.000001 -0.000003 0
-0.000003 -0.000004 0
-0.000003 -0.000004 0
-0.000002 -0.000002 0
-0.000000 0.000000 0
0.000000 0.000002 0
0.000001 0.000002 0
0.000000 0.000001 0
-0.000000 -0.000000 0
-0.000001 -0.000001 0
-0.000001 -0.000001 0
-0.000000 -0.000001 0
-0.000000 -0.000001 0
-0.000000 -0.000001 0
0.000000 0.000001 0
-0.000004 0.000000 0
-0.000002 0.000002 0
0.000002 0.000002 0
0.000003 -0.000001 0
0.000002 -0.000003 0
0.000001 -0.000004 0
-0.000001 -0.000004 0
-0.000002 -0.000001 0
-0.000001 0.000001 0
-0.000000 0.000002 0
0.000000 0.000002 0
0.000000 0.000001 0
-0.000000 -0.000000 0
-0.000001 -0.000001 0
-0.000001 -0.000001 0
-0.000001 -0.000001 0
-0.000001 -0.000001 0
-0.000000 -0.000001 0
-0.000000 -0.000001 0
-0.000000 -0.000001 0
0.000000 0.000001 0
-0.000003 0.000000 0
-0.000001 0.000000 0
0.000000 -0.000001 0
0.000000 -0.000003 0
0.000001 -0.000003 0
0.000001 -0.000001 0
0.000000 0.000000 0
0.000000 0.000001 0
-0.000000 0.000002 0
-0.000001 0.000001 0
-0.000001 -0.000000 0
-0.000001 -0.000001 0
-0.000001 -0.000001 0
-0.000001 -0.000001 0
-0.000000 -0.000001 0
-0.000000 -0.000001 0
-0.000000 -0.000000 0
-0.000000 -0.000000 0
-0.000000 -0.000001 0
-0.000000 -0.000001 0
0.000000 -0.000001 0
-0.000002 -0.000001 0
-0.000001 -0.000001 0
-0.000001 -0.000001 0
0.000000 -0.000001 0
0.000002 -0.000000 0
0.000002 0.000000 0
0.000001 0.000000 0
0.000000 0.000000 0
-0.000001 -0.000000 0
-0.000001 -0.000000 0
-0.000001 -0.000001 0
-0.000001 -0.000000 0
-0.000001 -0.000000 0
-0.000000 -0.000000 0
-0.000000 -0.000000 0
-0.000000 -0.000001 0
-0.000000 -0.000001 0
-0.000000 -0.000001 0
-0.000000 -0.000001 0
-0.000000 -0.000001 0
0.000000 -0.000001 0
-0.000001 -0.000002 0
-0.000001 -0.000001 0
-0.000001 -0.000000 0
0.000000 -0.000000 0
0.000002 -0.000000 0
0.000002 -0.000001 0
0.000001 -0.000001 0
0.000000 -0.000000 0
-0.000001 0.000000 0
-0.000001 0.000001 0
-0.000001 0.000001 0
-0.000001 0.000000 0
-0.000001 -0.000000 0
-0.000001 -0.000001 0
-0.000000 -0.000001 0
-0.000000 -0.000001 0
-0.000000 -0.000001 0
-0.000000 -0.000001 0
-0.000000 -0.000001 0
-0.000000 -0.000001 0
0.000000 -0.000000 0
0.000000 -0.000002 0
-0.000001 -0.000001 0
-0.000001 -0.000001 0
0.000000 -0.000001 0
0.000002 -0.000001 0
0.000002 -0.000001 0
0.000002 -0.000000 0
0.000001 0.000001 0
-0.000000 0.000002 0
-0.000001 0.000002 0
-0.000002 0.000001 0
-0.000001 0.000000 0
-0.000001 -0.000001 0
-0.000001 -0.000001 0
-0.000000 -0.000001 0
-0.000000 -0.000001 0
-0.000000 -0.000001 0
-0.000000 -0.000001 0
-0.000000 -0.000001 0
-0.000000 -0.000001 0
0.000000 -0.000000 0
0.000001 -0.000002 0
-0.000001 -0.000001 0
-0.000001 -0.000001 0
0.000000 -0.000001 0
0.000001 -0.000001 0
0.000002 -0.000001 0
0.000002 0.000000 0
0.000001 0.000002 0
0.000000 0.000003 0
-0.000001 0.000002 0
-0.000002 0.000001 0
-0.000001 -0.000000 0
-0.000001 -0.000001 0
-0.000001 -0.000001 0
-0.000000 -0.000001 0
-0.000000 -0.000001 0
-0.000000 -0.000001 0
-0.000000 -0.000001 0
-0.000000 -0.000001 0
-0.000000 -0.000001 0
0.000000 -0.000000 0
0.000001 -0.000002 0
-0.000001 -0.000002 0
-0.000001 -0.000002 0
-0.000000 -0.000001 0
0.000000 -0.000001 0
0.000001 -0.000001 0
0.000002 0.000001 0
0.000001 0.000002 0
0.000000 0.000003 0
-0.000001 0.000002 0
-0.000001 0.000001 0
-0.000001 -0.000001 0
-0.000001 -0.000001 0
-0.000000 -0.000001 0
-0.000000 -0.000001 0
-0.000000 -0.000001 0
-0.000000 -0.000001 0
-0.000000 -0.000001 0
-0.000000 -0.000001 0
-0.000000 -0.000001 0
0.000000 -0.000000 0
0.000001 -0.000002 0
-0.000000 -0.000002 0
-0.000001 -0.000001 0
-0.000000 -0.000001 0
-0.000000 -0.000001 0
0.000000 -0.000001 0
0.000001 0.000001 0
0.000000 0.000002 0
0.000000 0.000003 0
-0.000000 0.000003 0
-0.000000 0.000001 0
-0.000000 -0.000001 0
-0.000000 -0.000001 0
0.000000 -0.000001 0
0.000000 -0.000001 0
0.000000 -0.000001 0
0.000000 -0.000001 0
0.000000 -0.000001 0
0.000000 -0.000001 0
0.000000 -0.000001 0
0.000000 -0.000000 0
0.000001 -0.000002 0
-0.000000 -0.000002 0
-0.000000 -0.000001 0
-0.000001 -0.000001 0
-0.000001 -0.000001 0
-0.000001 -0.000001 0
-0.000000 0.000000 0
-0.000000 0.000002 0
0.000000 0.000003 0
0.000001 0.000003 0
0.000001 0.000001 0
0.000001 -0.000000 0
0.000001 -0.000001 0
0.000000 -0.000001 0
0.000000 -0.000001 0
0.000000 -0.000001 0
0.000000 -0.000001 0
0.000000 -0.000001 0
0.000000 -0.000001 0
0.000000 -0.000001 0
0.000000 -0.000000 0
0.000001 -0.000001 0
0.000000 -0.000001 0
-0.000000 -0.000001 0
-0.000001 -0.000001 0
-0.000001 -0.000001 0
-0.000001 -0.000001 0
-0.000001 0.000001 0
-0.000000 0.000002 0
0.000000 0.000003 0
0.000001 0.000002 0
0.000001 0.000001 0
0.000001 -0.000000 0
0.000001 -0.000001 0
0.000001 -0.000001 0
0.000001 -0.000001 0
0.000000 -0.000001 0
0.000000 -0.000001 0
0.000000 -0.000001 0
0.000000 -0.000001 0
0.000000 -0.000000 0
0.000000 -0.000000 0
0.000001 -0.000001 0
0.000000 -0.000001 0
-0.000000 -0.000001 0
-0.000001 -0.000001 0
-0.000001 -0.000001 0
-0.000001 -0.000000 0
-0.000001 0.000001 0
-0.000000 0.000001 0
0.000000 0.000002 0
0.000001 0.000001 0
0.000001 0.000001 0
0.000001 -0.000000 0
0.000001 -0.000001 0
0.000001 -0.000001 0
0.000001 -0.000001 0
0.000001 -0.000001 0
0.000000 -0.000001 0
0.000000 -0.000001 0
0.000000 -0.000000 0
0.000000 -0.000000 0
0.000000 -0.000000 0
0.000000 -0.000001 0
0.000000 -0.000001 0
-0.000000 -0.000001 0
-0.000001 -0.000001 0
-0.000001 -0.000000 0
-0.000001 0.000000 0
-0.000001 0.000001 0
-0.000000 0.000001 0
0.000000 0.000001 0
0.000001 0.000001 0
0.000001 0.000000 0
0.000001 -0.000000 0
0.000001 -0.000000 0
0.000001 -0.000000 0
0.000001 -0.000001 0
0.000001 -0.000001 0
0.000000 -0.000000 0
0.000000 -0.000000 0
0.000000 -0.000000 0
0.000000 -0.000000 0
0.000000 -0.000000 0
0.000000 -0.000001 0
0.000000 -0.000001 0
-0.000000 -0.000001 0
-0.000001 -0.000000 0
-0.000001 -0.000000 0
-0.000001 0.000000 0
-0.000001 0.000000 0
-0.000000 0.000000 0
0.000000 0.000001 0
0.000001 0.000001 0
0.000001 0.000000 0
0.000001 0.000000 0
0.000001 -0.000000 0
0.000001 -0.000000 0
0.000001 -0.000000 0
0.000001 -0.000000 0
0.000001 -0.000000 0
0.000000 -0.000000 0
0.000000 -0.000000 0
0.000000 -0.000000 0
0.000000 0.000000 0
0.000000 -0.000000 0
0.000000 -0.000000 0
0.000000 -0.000001 0
-0.000000 -0.000000 0
-0.000001 -0.000000 0
-0.000001 -0.000000 0
-0.000000 0.000000 0
-0.000000 0.000000 0
0.000000 0.000000 0
0.000001 0.000000 0
0.000001 0.000000 0
0.000001 0.000000 0
0.000001 -0.000000 0
0.000001 -0.000000 0
0.000001 -0.000000 0
0.000001 -0.000000 0
0.000001 -0.000000 0
0.000000 -0.000000 0
0.000000 -0.000000 0
0.000000 -0.000000 0
0.000000 0.000000 0
0.000000 -0.000000 0
0.000000 -0.000000 0
0.000000 -0.000000 0
-0.000000 -0.000000 0
-0.000000 -0.000000 0
-0.000000 0.000000 0
-0.000000 0.000000 0
-0.000000 0.000000 0
0.000000 0.000000 0
0.000000 0.000000 0
0.000001 0.000000 0
0.000001 -0.000000 0
0.000001 -0.000000 0
0.000001 -0.000000 0
0.000001 -0.000000 0
0.000001 -0.000000 0
0.000001 -0.000000 0
0.000000 -0.000000 0
0.000000 -0.000000 0
0.000000 -0.000000 0
0.000000 -0.000000 0
0.000000 -0.000000 0
0.000000 -0.000000 0
0.000000 -0.000000 0
-0.000000 -0.000000 0
-0.000000 0.000000 0
-0.000000 0.000000 0
-0.000000 0.000000 0
-0.000000 0.000000 0
0.000000 0.000000 0
0.000000 0.000000 0
0.000001 -0.000000 0
0.000001 -0.000000 0
0.000001 -0.000000 0
0.000001 -0.000000 0
0.000001 -0.000000 0
0.000001 -0.000000 0
0.000001 -0.000000 0
0.000000 -0.000000 0
0.000000 -0.000000 0
0.000000 -0.000000 0
0.000000 0.000000 0
0.000000 0.000000 0
0.000000 0.000000 0
0.000000 0.000000 0
0.000000 0.000000 0
-0.000000 0.000000 0
-0.000000 0.000000 0
-0.000000 0.000000 0
-0.000000 0.000000 0
0.000000 0.000000 0
0.000000 0.000000 0
0.000000 0.000000 0
0.000000 0.000000 0
0.000000 0.000000 0
0.000000 0.000000 0
0.000000 0.000000 0
0.000000 0.000000 0
0.000000 0.000000 0
0.000000 0.000000 0
0.000000 0.000000 0
0.000000 0.000000 0

CELL_DATA 400 
SCALARS pressure float 1 
LOOKUP_TABLE default 
0.242655
0.242620
0.242588
0.242583
0.242601
0.242626
0.242645
0.242648
0.242639
0.242625
0.242614
0.242610
0.242612
0.242617
0.242621
0.242623
0.242623
0.242623
0.242622
0.242622
0.219615
0.219608
0.219618
0.219630
0.219634
0.219631
0.219624
0.219616
0.219612
0.219613
0.219617
0.219622
0.219624
0.219625
0.219623
0.219622
0.219621
0.219621
0.219621
0.219621
0.196611
0.196629
0.196639
0.196632
0.196619
0.196609
0.196605
0.196609
0.196617
0.196625
0.196628
0.196628
0.196624
0.196621
0.196619
0.196619
0.196620
0.196621
0.196621
0.196622
0.173620
0.173631
0.173630
0.173620
0.173612
0.173610
0.173613
0.173620
0.173626
0.173627
0.173625
0.173622
0.173620
0.173619
0.173619
0.173620
0.173621
0.173622
0.173622
0.173622
0.150618
0.150624
0.150624
0.150622
0.150620
0.150620
0.150620
0.150621
0.150622
0.150621
0.150621
0.150621
0.150621
0.150621
0.150622
0.150622
0.150622
0.150622
0.150622
0.150622
0.127615
0.127623
0.127625
0.127626
0.127625
0.127621
0.127618
0.127618
0.127618
0.127620
0.127622
0.127624
0.127624
0.127623
0.127622
0.127621
0.127621
0.127622
0.127622
0.127622
0.104617
0.104622
0.104624
0.104626
0.104624
0.104620
0.104618
0.104618
0.104619
0.104622
0.104623
0.104624
0.104623
0.104622
0.104622
0.104621
0.104622
0.104622
0.104622
0.104622
0.081620
0.081621
0.081623
0.081626
0.081624
0.081621
0.081620
0.081620
0.081620
0.081621
0.081622
0.081623
0.081622
0.081622
0.081622
0.081622
0.081622
0.081622
0.081622
0.081622
0.058621
0.058620
0.058623
0.058625
0.058624
0.058623
0.058621
0.058620
0.058620
0.058620
0.058621
0.058622
0.058623
0.058623
0.058623
0.058622
0.058622
0.058622
0.058622
0.058622
0.035621
0.035620
0.035623
0.035625
0.035625
0.035624
0.035622
0.035621
0.035620
0.035620
0.035621
0.035622
0.035623
0.035623
0.035623
0.035623
0.035623
0.035622
0.035622
0.035623
0.012621
0.012621
0.012623
0.012625
0.012625
0.012624
0.012623
0.012621
0.012621
0.012621
0.012622
0.012623
0.012623
0.012623
0.012623
0.012623
0.012623
0.012623
0.012623
0.012623
-0.010378
-0.010379
-0.010377
-0.010376
-0.010375
-0.010375
-0.010376
-0.010377
-0.010378
-0.010378
-0.010377
-0.010377
-0.010377
-0.010377
-0.010377
-0.010377
-0.010377
-0.010377
-0.010377
-0.010377
-0.033377
-0.033378
-0.033378
-0.033377
-0.033376
-0.033375
-0.033375
-0.033376
-0.033377
-0.033377
-0.033377
-0.033377
-0.033377
-0.033377
-0.033377
-0.033377
-0.033377
-0.033377
-0.033377
-0.033377
-0.056377
-0.056378
-0.056378
-0.056377
-0.056375
-0.056375
-0.056375
-0.056376
-0.056376
-0.056377
-0.056377
-0.056377
-0.056377
-0.056377
-0.056377
-0.056377
-0.056377
-0.056377
-0.056377
-0.056377
-0.079376
-0.079377
-0.079377
-0.079377
-0.079376
-0.079375
-0.079375
-0.079376
-0.079376
-0.079377
-0.079377
-0.079377
-0.079376
-0.079376
-0.079376
-0.079377
-0.079377
-0.079377
-0.079377
-0.079377
-0.102376
-0.102376
-0.102377
-0.102377
-0.102376
-0.102376
-0.102375
-0.102375
-0.102376
-0.102376
-0.102376
-0.102376
-0.102376
-0.102376
-0.102376
-0.102377
-0.102377
-0.102377
-0.102377
-0.102377
-0.125375
-0.125376
-0.125377
-0.125377
-0.125377
-0.125376
-0.125375
-0.125375
-0.125375
-0.125376
-0.125376
-0.125376
-0.125377
-0.125377
-0.125376
-0.125376
-0.125377
-0.125377
-0.125377
-0.125377
-0.148375
-0.148376
-0.148377
-0.148377
-0.148376
-0.148376
-0.148375
-0.148375
-0.148376
-0.148376
-0.148376
-0.148376
-0.148376
-0.148376
-0.148376
-0.148376
-0.148376
-0.148377
-0.148377
-0.148377
-0.171375
-0.171376
-0.171376
-0.171376
-0.171376
-0.171376
-0.171376
-0.171376
-0.171376
-0.171376
-0.171376
-0.171376
-0.171376
-0.171376
-0.171376
-0.171376
-0.171376
-0.171377
-0.171377
-0.171377
-0.194375
-0.194375
-0.194376
-0.194376
-0.194377
-0.194376
-0.194376
-0.194376
-0.194376
-0.194376
-0.194376
-0.194376
-0.194376
-0.194376
-0.194376
-0.194376
-0.194376
-0.194377
-0.194377
-0.194377

SCALARS temperature float 1 
LOOKUP_TABLE default 
0.000000
0.000000
0.000000
0.000000
0.000000
0.000000
0.000000
0.000000
0.000000
0.000000
0.000000
0.000000
0.000000
0.000000
0.000000
0.000000
0.000000
0.000000
0.000000
0.000000
0.000000
0.000000
0.000000
0.000000
0.000000
0.000000
0.000000
0.000000
0.000000
0.000000
0.000000
0.000000
0.000000
0.000000
0.000000
0.000000
0.000000
0.000000
0.000000
0.000000
0.000000
0.000000
0.000000
0.000000
0.000000
0.000000
0.000000
0.000000
0.000001
0.000001
0.000001
0.000000
0.000000
0.000000
0.000000
0.000000
0.000000
0.000000
0.000000
0.000000
0.000000
0.000000
0.000000
0.000000
0.000000
0.000001
0.000002
0.000003
0.000004
0.000004
0.000003
0.000002
0.000001
0.000000
0.000000
0.000000
0.000000
0.000000
0.000000
0.000000
0.000000
0.000000
0.000000
0.000000
0.000002
0.000004
0.000009
0.000015
0.000020
0.000021
0.000017
0.000010
0.000005
0.000002
0.000001
0.000000
0.000000
0.000000
0.000000
0.000000
0.000000
0.000000
0.000000
0.000002
0.000007
0.000019
0.000040
0.000068
0.000089
0.000091
0.000072
0.000045
0.000022
0.000009
0.000003
0.000001
0.000000
0.000000
0.000000
0.000000
0.000000
0.000000
0.000002
0.000007
0.000024
0.000067
0.000146
0.000247
0.000324
0.000328
0.000257
0.000157
0.000076
0.000030
0.000010
0.000003
0.000001
0.000000
0.000000
0.000000
0.000000
0.000001
0.000005
0.000020
0.000069
0.000192
0.000423
0.000724
0.000953
0.000960
0.000743
0.000446
0.000212
0.000081
0.000026
0.000007
0.000002
0.000000
0.000000
0.000000
0.000000
0.000002
0.000010
0.000044
0.000154
0.000434
0.000970
0.001680
0.002224
0.002234
0.001708
0.001007
0.000468
0.000176
0.000054
0.000014
0.000003
0.000001
0.000000
0.000000
0.000000
0.000003
0.000017
0.000075
0.000266
0.000759
0.001717
0.003008
0.004005
0.004015
0.003040
0.001766
0.000807
0.000298
0.000091
0.000023
0.000005
0.000001
0.000000
0.000000
0.000000
0.000004
0.000022
0.000098
0.000350
0.001005
0.002288
0.004034
0.005389
0.005399
0.004070
0.002346
0.001063
0.000390
0.000118
0.000030
0.000007
0.000001
0.000000
0.000000
0.000000
0.000004
0.000022
0.000099
0.000350
0.001000
0.002269
0.003990
0.005325
0.005337
0.004030
0.002330
0.001060
0.000390
0.000119
0.000031
0.000007
0.000001
0.000000
0.000000
0.000000
0.000003
0.000017
0.000076
0.000267
0.000752
0.001683
0.002929
0.003888
0.003902
0.002969
0.001739
0.000803
0.000301
0.000093
0.000024
0.000005
0.000001
0.000000
0.000000
0.000000
0.000002
0.000011
0.000046
0.000157
0.000435
0.000955
0.001637
0.002157
0.002170
0.001670
0.000997
0.000472
0.000181
0.000057
0.000015
0.000004
0.000001
0.000000
0.000000
0.000000
0.000001
0.000005
0.000022
0.000073
0.000198
0.000427
0.000720
0.000942
0.000951
0.000742
0.000453
0.000220
0.000087
0.000028
0.000008
0.000002
0.000000
0.000000
0.000000
0.000000
0.000000
0.000002
0.000008
0.000028
0.000073
0.000154
0.000257
0.000335
0.000339
0.000268
0.000167
0.000083
0.000034
0.000011
0.000003
0.000001
0.000000
0.000000
0.000000
0.000000
0.000000
0.000001
0.000003
0.000009
0.000022
0.000046
0.000077
0.000099
0.000101
0.000081
0.000051
0.000026
0.000011
0.000004
0.000001
0.000000
0.000000
0.000000
0.000000
0.000000
0.000000
0.000000
0.000001
0.000002
0.000006
0.000012
0.000020
0.000025
0.000026
0.000021
0.000014
0.000007
0.000003
0.000001
0.000000
0.000000
0.000000
0.000000
0.000000
0.000000
0.000000
0.000000
0.000000
0.000001
0.000001
0.000003
0.000005
0.000006
0.000006
0.000005
0.000003
0.000002
0.000001
0.000000
0.000000
0.000000
0.000000
0.000000
0.000000
0.000000
0.000000
0.000000
0.000000
0.000000
0.000000
0.000001
0.000001
0.000002
0.000002
0.000002
0.000001
0.000001
0.000000
0.000000
0.000000
0.000000
0.000000
0.000000
0.000000


SCALARS Species_1 float 1 
LOOKUP_TABLE default 
0.000001
0.000003
0.000009
0.000026
0.000066
0.000155
0.000328
0.000623
0.001062
0.001616
0.002188
0.002634
0.002816
0.002678
0.002272
0.001726
0.001183
0.000741
0.000445
0.000299
0.000001
0.000005
0.000017
0.000047
0.000120
0.000277
0.000580
0.001093
0.001847
0.002787
0.003748
0.004485
0.004773
0.004524
0.003828
0.002904
0.001988
0.001247
0.000750
0.000506
0.000002
0.000011
0.000034
0.000095
0.000240
0.000551
0.001144
0.002139
0.003586
0.005376
0.007187
0.008556
0.009067
0.008564
0.007226
0.005470
0.003741
0.002345
0.001412
0.000956
0.000005
0.000021
0.000065
0.000180
0.000452
0.001028
0.002118
0.003933
0.006553
0.009770
0.012998
0.015409
0.016273
0.015326
0.012905
0.009756
0.006665
0.004177
0.002519
0.001708
0.000008
0.000037
0.000113
0.000308
0.000766
0.001732
0.003545
0.006541
0.010840
0.016083
0.021307
0.025170
0.026505
0.024908
0.020941
0.015816
0.010802
0.006772
0.004090
0.002780
0.000013
0.000057
0.000173
0.000470
0.001162
0.002610
0.005311
0.009747
0.016076
0.023750
0.031351
0.036926
0.038795
0.036397
0.030569
0.023076
0.015763
0.009891
0.005984
0.004078
0.000018
0.000079
0.000237
0.000638
0.001569
0.003506
0.007098
0.012966
0.021295
0.031347
0.041256
0.048477
0.050843
0.047647
0.039997
0.030195
0.020638
0.012967
0.007863
0.005372
0.000022
0.000096
0.000287
0.000771
0.001884
0.004191
0.008446
0.015368
0.025153
0.036917
0.048473
0.056857
0.059563
0.055790
0.046834
0.035378
0.024209
0.015237
0.009263
0.006347
0.000024
0.000104
0.000309
0.000826
0.002011
0.004455
0.008946
0.016225
0.026482
0.038781
0.050834
0.059559
0.062360
0.058412
0.049066
0.037106
0.025434
0.016044
0.009783
0.006723
0.000023
0.000100
0.000296
0.000788
0.001910
0.004217
0.008444
0.015275
0.024881
0.036378
0.047633
0.055779
0.058406
0.054742
0.046037
0.034875
0.023957
0.015155
0.009272
0.006392
0.000020
0.000085
0.000252
0.000669
0.001619
0.003564
0.007119
0.012855
0.020909
0.030542
0.039973
0.046813
0.049049
0.046026
0.038773
0.029438
0.020277
0.012869
0.007903
0.005466
0.000015
0.000065
0.000193
0.000509
0.001228
0.002699
0.005383
0.009707
0.015775
0.023034
0.030149
0.035330
0.037060
0.034835
0.029411
0.022390
0.015473
0.009856
0.006077
0.004218
0.000010
0.000045
0.000132
0.000348
0.000839
0.001840
0.003666
0.006607
0.010734
0.015675
0.020529
0.024084
0.025304
0.023836
0.020178
0.015410
0.010688
0.006836
0.004234
0.002949
0.000006
0.000028
0.000082
0.000216
0.000518
0.001136
0.002262
0.004076
0.006622
0.009676
0.012685
0.014904
0.015690
0.014818
0.012582
0.009643
0.006715
0.004314
0.002685
0.001877
0.000004
0.000016
0.000046
0.000121
0.000292
0.000639
0.001272
0.002292
0.003725
0.005448
0.007151
0.008418
0.008883
0.008413
0.007168
0.005515
0.003857
0.002490
0.001557
0.001093
0.000002
0.000008
0.000024
0.000063
0.000150
0.000329
0.000655
0.001181
0.001921
0.002813
0.003699
0.004363
0.004617
0.004387
0.003751
0.002898
0.002036
0.001321
0.000830
0.000585
0.000001
0.000004
0.000011
0.000030
0.000071
0.000156
0.000311
0.000561
0.000914
0.001340
0.001766
0.002088
0.002216
0.002112
0.001813
0.001407
0.000993
0.000648
0.000409
0.000290
0.000000
0.000002
0.000005
0.000013
0.000031
0.000069
0.000137
0.000248
0.000405
0.000594
0.000784
0.000930
0.000990
0.000947
0.000817
0.000637
0.000452
0.000296
0.000188
0.000134
0.000000
0.000001
0.000002
0.000006
0.000013
0.000029
0.000058
0.000105
0.000172
0.000253
0.000335
0.000398
0.000425
0.000409
0.000354
0.000277
0.000198
0.000130
0.000083
0.000059
0.000000
0.000000
0.000001
0.000003
0.000006
0.000014
0.000028
0.000051
0.000084
0.000124
0.000165
0.000197
0.000211
0.000204
0.000177
0.000140
0.000100
0.000066
0.000043
0.000030


SCALARS Species_2 float 1 
LOOKUP_TABLE default 
0.000001
0.000004
0.000006
0.000009
0.000011
0.000012
0.000012
0.000010
0.000008
0.000006
0.000003
0.000002
0.000001
0.000000
0.000000
0.000000
0.000000
0.000000
0.000000
0.000000
0.000003
0.000010
0.000018
0.000025
0.000032
0.000035
0.000033
0.000029
0.000022
0.000015
0.000009
0.000005
0.000003
0.000001
0.000001
0.000000
0.000000
0.000000
0.000000
0.000000
0.000010
0.000032
0.000056
0.000080
0.000098
0.000107
0.000103
0.000088
0.000067
0.000046
0.000029
0.000016