# vtk DataFile Version 2.0
generated by CFD-lab course output (written by Tobias Neckel) 
ASCII

DATASET STRUCTURED_GRID
DIMENSIONS  21 21 1 
POINTS 441 float

0.000000 0.000000 0
0.100000 0.000000 0
0.200000 0.000000 0
0.300000 0.000000 0
0.400000 0.000000 0
0.500000 0.000000 0
0.600000 0.000000 0
0.700000 0.000000 0
0.800000 0.000000 0
0.900000 0.000000 0
1.000000 0.000000 0
1.100000 0.000000 0
1.200000 0.000000 0
1.300000 0.000000 0
1.400000 0.000000 0
1.500000 0.000000 0
1.600000 0.000000 0
1.700000 0.000000 0
1.800000 0.000000 0
1.900000 0.000000 0
2.000000 0.000000 0
0.000000 0.100000 0
0.100000 0.100000 0
0.200000 0.100000 0
0.300000 0.100000 0
0.400000 0.100000 0
0.500000 0.100000 0
0.600000 0.100000 0
0.700000 0.100000 0
0.800000 0.100000 0
0.900000 0.100000 0
1.000000 0.100000 0
1.100000 0.100000 0
1.200000 0.100000 0
1.300000 0.100000 0
1.400000 0.100000 0
1.500000 0.100000 0
1.600000 0.100000 0
1.700000 0.100000 0
1.800000 0.100000 0
1.900000 0.100000 0
2.000000 0.100000 0
0.000000 0.200000 0
0.100000 0.200000 0
0.200000 0.200000 0
0.300000 0.200000 0
0.400000 0.200000 0
0.500000 0.200000 0
0.600000 0.200000 0
0.700000 0.200000 0
0.800000 0.200000 0
0.900000 0.200000 0
1.000000 0.200000 0
1.100000 0.200000 0
1.200000 0.200000 0
1.300000 0.200000 0
1.400000 0.200000 0
1.500000 0.200000 0
1.600000 0.200000 0
1.700000 0.200000 0
1.800000 0.200000 0
1.900000 0.200000 0
2.000000 0.200000 0
0.000000 0.300000 0
0.100000 0.300000 0
0.200000 0.300000 0
0.300000 0.300000 0
0.400000 0.300000 0
0.500000 0.300000 0
0.600000 0.300000 0
0.700000 0.300000 0
0.800000 0.300000 0
0.900000 0.300000 0
1.000000 0.300000 0
1.100000 0.300000 0
1.200000 0.300000 0
1.300000 0.300000 0
1.400000 0.300000 0
1.500000 0.300000 0
1.600000 0.300000 0
1.700000 0.300000 0
1.800000 0.300000 0
1.900000 0.300000 0
2.000000 0.300000 0
0.000000 0.400000 0
0.100000 0.400000 0
0.200000 0.400000 0
0.300000 0.400000 0
0.400000 0.400000 0
0.500000 0.400000 0
0.600000 0.400000 0
0.700000 0.400000 0
0.800000 0.400000 0
0.900000 0.400000 0
1.000000 0.400000 0
1.100000 0.400000 0
1.200000 0.400000 0
1.300000 0.400000 0
1.400000 0.400000 0
1.500000 0.400000 0
1.600000 0.400000 0
1.700000 0.400000 0
1.800000 0.400000 0
1.900000 0.400000 0
2.000000 0.400000 0
0.000000 0.500000 0
0.100000 0.500000 0
0.200000 0.500000 0
0.300000 0.500000 0
0.400000 0.500000 0
0.500000 0.500000 0
0.600000 0.500000 0
0.700000 0.500000 0
0.800000 0.500000 0
0.900000 0.500000 0
1.000000 0.500000 0
1.100000 0.500000 0
1.200000 0.500000 0
1.300000 0.500000 0
1.400000 0.500000 0
1.500000 0.500000 0
1.600000 0.500000 0
1.700000 0.500000 0
1.800000 0.500000 0
1.900000 0.500000 0
2.000000 0.500000 0
0.000000 0.600000 0
0.100000 0.600000 0
0.200000 0.600000 0
0.300000 0.600000 0
0.400000 0.600000 0
0.500000 0.600000 0
0.600000 0.600000 0
0.700000 0.600000 0
0.800000 0.600000 0
0.900000 0.600000 0
1.000000 0.600000 0
1.100000 0.600000 0
1.200000 0.600000 0
1.300000 0.600000 0
1.400000 0.600000 0
1.500000 0.600000 0
1.600000 0.600000 0
1.700000 0.600000 0
1.800000 0.600000 0
1.900000 0.600000 0
2.000000 0.600000 0
0.000000 0.700000 0
0.100000 0.700000 0
0.200000 0.700000 0
0.300000 0.700000 0
0.400000 0.700000 0
0.500000 0.700000 0
0.600000 0.700000 0
0.700000 0.700000 0
0.800000 0.700000 0
0.900000 0.700000 0
1.000000 0.700000 0
1.100000 0.700000 0
1.200000 0.700000 0
1.300000 0.700000 0
1.400000 0.700000 0
1.500000 0.700000 0
1.600000 0.700000 0
1.700000 0.700000 0
1.800000 0.700000 0
1.900000 0.700000 0
2.000000 0.700000 0
0.000000 0.800000 0
0.100000 0.800000 0
0.200000 0.800000 0
0.300000 0.800000 0
0.400000 0.800000 0
0.500000 0.800000 0
0.600000 0.800000 0
0.700000 0.800000 0
0.800000 0.800000 0
0.900000 0.800000 0
1.000000 0.800000 0
1.100000 0.800000 0
1.200000 0.800000 0
1.300000 0.800000 0
1.400000 0.800000 0
1.500000 0.800000 0
1.600000 0.800000 0
1.700000 0.800000 0
1.800000 0.800000 0
1.900000 0.800000 0
2.000000 0.800000 0
0.000000 0.900000 0
0.100000 0.900000 0
0.200000 0.900000 0
0.300000 0.900000 0
0.400000 0.900000 0
0.500000 0.900000 0
0.600000 0.900000 0
0.700000 0.900000 0
0.800000 0.900000 0
0.900000 0.900000 0
1.000000 0.900000 0
1.100000 0.900000 0
1.200000 0.900000 0
1.300000 0.900000 0
1.400000 0.900000 0
1.500000 0.900000 0
1.600000 0.900000 0
1.700000 0.900000 0
1.800000 0.900000 0
1.900000 0.900000 0
2.000000 0.900000 0
0.000000 1.000000 0
0.100000 1.000000 0
0.200000 1.000000 0
0.300000 1.000000 0
0.400000 1.000000 0
0.500000 1.000000 0
0.600000 1.000000 0
0.700000 1.000000 0
0.800000 1.000000 0
0.900000 1.000000 0
1.000000 1.000000 0
1.100000 1.000000 0
1.200000 1.000000 0
1.300000 1.000000 0
1.400000 1.000000 0
1.500000 1.000000 0
1.600000 1.000000 0
1.700000 1.000000 0
1.800000 1.000000 0
1.900000 1.000000 0
2.000000 1.000000 0
0.000000 1.100000 0
0.100000 1.100000 0
0.200000 1.100000 0
0.300000 1.100000 0
0.400000 1.100000 0
0.500000 1.100000 0
0.600000 1.100000 0
0.700000 1.100000 0
0.800000 1.100000 0
0.900000 1.100000 0
1.000000 1.100000 0
1.100000 1.100000 0
1.200000 1.100000 0
1.300000 1.100000 0
1.400000 1.100000 0
1.500000 1.100000 0
1.600000 1.100000 0
1.700000 1.100000 0
1.800000 1.100000 0
1.900000 1.100000 0
2.000000 1.100000 0
0.000000 1.200000 0
0.100000 1.200000 0
0.200000 1.200000 0
0.300000 1.200000 0
0.400000 1.200000 0
0.500000 1.200000 0
0.600000 1.200000 0
0.700000 1.200000 0
0.800000 1.200000 0
0.900000 1.200000 0
1.000000 1.200000 0
1.100000 1.200000 0
1.200000 1.200000 0
1.300000 1.200000 0
1.400000 1.200000 0
1.500000 1.200000 0
1.600000 1.200000 0
1.700000 1.200000 0
1.800000 1.200000 0
1.900000 1.200000 0
2.000000 1.200000 0
0.000000 1.300000 0
0.100000 1.300000 0
0.200000 1.300000 0
0.300000 1.300000 0
0.400000 1.300000 0
0.500000 1.300000 0
0.600000 1.300000 0
0.700000 1.300000 0
0.800000 1.300000 0
0.900000 1.300000 0
1.000000 1.300000 0
1.100000 1.300000 0
1.200000 1.300000 0
1.300000 1.300000 0
1.400000 1.300000 0
1.500000 1.300000 0
1.600000 1.300000 0
1.700000 1.300000 0
1.800000 1.300000 0
1.900000 1.300000 0
2.000000 1.300000 0
0.000000 1.400000 0
0.100000 1.400000 0
0.200000 1.400000 0
0.300000 1.400000 0
0.400000 1.400000 0
0.500000 1.400000 0
0.600000 1.400000 0
0.700000 1.400000 0
0.800000 1.400000 0
0.900000 1.400000 0
1.000000 1.400000 0
1.100000 1.400000 0
1.200000 1.400000 0
1.300000 1.400000 0
1.400000 1.400000 0
1.500000 1.400000 0
1.600000 1.400000 0
1.700000 1.400000 0
1.800000 1.400000 0
1.900000 1.400000 0
2.000000 1.400000 0
0.000000 1.500000 0
0.100000 1.500000 0
0.200000 1.500000 0
0.300000 1.500000 0
0.400000 1.500000 0
0.500000 1.500000 0
0.600000 1.500000 0
0.700000 1.500000 0
0.800000 1.500000 0
0.900000 1.500000 0
1.000000 1.500000 0
1.100000 1.500000 0
1.200000 1.500000 0
1.300000 1.500000 0
1.400000 1.500000 0
1.500000 1.500000 0
1.600000 1.500000 0
1.700000 1.500000 0
1.800000 1.500000 0
1.900000 1.500000 0
2.000000 1.500000 0
0.000000 1.600000 0
0.100000 1.600000 0
0.200000 1.600000 0
0.300000 1.600000 0
0.400000 1.600000 0
0.500000 1.600000 0
0.600000 1.600000 0
0.700000 1.600000 0
0.800000 1.600000 0
0.900000 1.600000 0
1.000000 1.600000 0
1.100000 1.600000 0
1.200000 1.600000 0
1.300000 1.600000 0
1.400000 1.600000 0
1.500000 1.600000 0
1.600000 1.600000 0
1.700000 1.600000 0
1.800000 1.600000 0
1.900000 1.600000 0
2.000000 1.600000 0
0.000000 1.700000 0
0.100000 1.700000 0
0.200000 1.700000 0
0.300000 1.700000 0
0.400000 1.700000 0
0.500000 1.700000 0
0.600000 1.700000 0
0.700000 1.700000 0
0.800000 1.700000 0
0.900000 1.700000 0
1.000000 1.700000 0
1.100000 1.700000 0
1.200000 1.700000 0
1.300000 1.700000 0
1.400000 1.700000 0
1.500000 1.700000 0
1.600000 1.700000 0
1.700000 1.700000 0
1.800000 1.700000 0
1.900000 1.700000 0
2.000000 1.700000 0
0.000000 1.800000 0
0.100000 1.800000 0
0.200000 1.800000 0
0.300000 1.800000 0
0.400000 1.800000 0
0.500000 1.800000 0
0.600000 1.800000 0
0.700000 1.800000 0
0.800000 1.800000 0
0.900000 1.800000 0
1.000000 1.800000 0
1.100000 1.800000 0
1.200000 1.800000 0
1.300000 1.800000 0
1.400000 1.800000 0
1.500000 1.800000 0
1.600000 1.800000 0
1.700000 1.800000 0
1.800000 1.800000 0
1.900000 1.800000 0
2.000000 1.800000 0
0.000000 1.900000 0
0.100000 1.900000 0
0.200000 1.900000 0
0.300000 1.900000 0
0.400000 1.900000 0
0.500000 1.900000 0
0.600000 1.900000 0
0.700000 1.900000 0
0.800000 1.900000 0
0.900000 1.900000 0
1.000000 1.900000 0
1.100000 1.900000 0
1.200000 1.900000 0
1.300000 1.900000 0
1.400000 1.900000 0
1.500000 1.900000 0
1.600000 1.900000 0
1.700000 1.900000 0
1.800000 1.900000 0
1.900000 1.900000 0
2.000000 1.900000 0
0.000000 2.000000 0
0.100000 2.000000 0
0.200000 2.000000 0
0.300000 2.000000 0
0.400000 2.000000 0
0.500000 2.000000 0
0.600000 2.000000 0
0.700000 2.000000 0
0.800000 2.000000 0
0.900000 2.000000 0
1.000000 2.000000 0
1.100000 2.000000 0
1.200000 2.000000 0
1.300000 2.000000 0
1.400000 2.000000 0
1.500000 2.000000 0
1.600000 2.000000 0
1.700000 2.000000 0
1.800000 2.000000 0
1.900000 2.000000 0
2.000000 2.000000 0
POINT_DATA 441 

VECTORS velocity float
0.000000 0.000000 0
0.000002 0.000000 0
-0.000009 0.000000 0
-0.000010 0.000000 0
-0.000004 0.000000 0
0.000003 0.000000 0
0.000007 0.000000 0
0.000007 0.000000 0
0.000004 0.000000 0
0.000000 0.000000 0
-0.000002 0.000000 0
-0.000003 0.000000 0
-0.000002 0.000000 0
-0.000001 0.000000 0
0.000000 0.000000 0
0.000000 0.000000 0
0.000000 0.000000 0
0.000000 0.000000 0
-0.000000 0.000000 0
-0.000000 0.000000 0
-0.000000 0.000000 0
0.000000 -0.000006 0
0.000017 -0.000027 0
0.000032 -0.000029 0
0.000049 -0.000016 0
0.000062 0.000003 0
0.000066 0.000018 0
0.000059 0.000026 0
0.000041 0.000027 0
0.000014 0.000025 0
-0.000018 0.000023 0
-0.000051 0.000021 0
-0.000081 0.000020 0
-0.000106 0.000018 0
-0.000125 0.000015 0
-0.000138 0.000011 0
-0.000146 0.000007 0
-0.000150 0.000003 0
-0.000151 0.000001 0
-0.000150 -0.000000 0
-0.000149 -0.000000 0
-0.000149 -0.000000 0
0.000000 -0.000010 0
0.000017 -0.000044 0
0.000043 -0.000032 0
0.000063 -0.000014 0
0.000072 0.000001 0
0.000071 0.000013 0
0.000060 0.000024 0
0.000039 0.000036 0
0.000011 0.000048 0
-0.000022 0.000056 0
-0.000057 0.000060 0
-0.000090 0.000056 0
-0.000118 0.000047 0
-0.000139 0.000035 0
-0.000153 0.000023 0
-0.000161 0.000012 0
-0.000165 0.000005 0
-0.000165 0.000000 0
-0.000164 -0.000002 0
-0.000163 -0.000001 0
-0.000163 -0.000001 0
0.000000 0.000003 0
0.000025 -0.000055 0
0.000051 -0.000049 0
0.000067 -0.000037 0
0.000075 -0.000020 0
0.000075 0.000004 0
0.000066 0.000033 0
0.000047 0.000063 0
0.000018 0.000088 0
-0.000019 0.000101 0
-0.000058 0.000101 0
-0.000095 0.000090 0
-0.000125 0.000071 0
-0.000146 0.000050 0
-0.000159 0.000031 0
-0.000165 0.000016 0
-0.000166 0.000005 0
-0.000164 -0.000001 0
-0.000162 -0.000003 0
-0.000161 -0.000002 0
-0.000160 -0.000001 0
0.000000 0.000006 0
0.000028 -0.000079 0
0.000052 -0.000080 0
0.000072 -0.000062 0
0.000085 -0.000031 0
0.000090 0.000011 0
0.000083 0.000057 0
0.000062 0.000099 0
0.000027 0.000129 0
-0.000017 0.000143 0
-0.000063 0.000139 0
-0.000104 0.000120 0
-0.000135 0.000094 0
-0.000155 0.000065 0
-0.000165 0.000039 0
-0.000167 0.000018 0
-0.000165 0.000005 0
-0.000161 -0.000003 0
-0.000158 -0.000005 0
-0.000155 -0.000003 0
-0.000155 -0.000001 0
0.000000 -0.000001 0
0.000025 -0.000111 0
0.000055 -0.000108 0
0.000082 -0.000079 0
0.000102 -0.000035 0
0.000110 0.000018 0
0.000103 0.000076 0
0.000078 0.000129 0
0.000036 0.000169 0
-0.000016 0.000188 0
-0.000070 0.000182 0
-0.000115 0.000156 0
-0.000146 0.000119 0
-0.000164 0.000079 0
-0.000170 0.000044 0
-0.000168 0.000018 0
-0.000162 0.000001 0
-0.000156 -0.000007 0
-0.000150 -0.000008 0
-0.000147 -0.000004 0
-0.000147 -0.000002 0
0.000000 -0.000003 0
0.000026 -0.000141 0
0.000061 -0.000134 0
0.000092 -0.000099 0
0.000115 -0.000049 0
0.000126 0.000014 0
0.000120 0.000087 0
0.000094 0.000159 0
0.000047 0.000217 0
-0.000013 0.000244 0
-0.000074 0.000236 0
-0.000124 0.000198 0
-0.000156 0.000145 0
-0.000171 0.000090 0
-0.000172 0.000044 0
-0.000165 0.000012 0
-0.000156 -0.000007 0
-0.000146 -0.000015 0
-0.000139 -0.000014 0
-0.000134 -0.000007 0
-0.000134 -0.000002 0
0.000000 0.000001 0
0.000028 -0.000168 0
0.000063 -0.000165 0
0.000095 -0.000129 0
0.000120 -0.000073 0
0.000135 0.000005 0
0.000133 0.000100 0
0.000108 0.000197 0
0.000058 0.000276 0
-0.000009 0.000312 0
-0.000077 0.000297 0
-0.000130 0.000241 0
-0.000160 0.000167 0
-0.000170 0.000095 0
-0.000166 0.000038 0
-0.000155 0.000001 0
-0.000141 -0.000019 0
-0.000130 -0.000025 0
-0.000121 -0.000020 0
-0.000116 -0.000009 0
-0.000116 -0.000002 0
0.000000 0.000002 0
0.000026 -0.000199 0
0.000057 -0.000200 0
0.000087 -0.000161 0
0.000113 -0.000096 0
0.000131 -0.000003 0
0.000133 0.000114 0
0.000112 0.000238 0
0.000063 0.000338 0
-0.000005 0.000383 0
-0.000074 0.000359 0
-0.000125 0.000281 0
-0.000150 0.000184 0
-0.000155 0.000094 0
-0.000146 0.000028 0
-0.000132 -0.000013 0
-0.000118 -0.000032 0
-0.000105 -0.000035 0
-0.000096 -0.000027 0
-0.000092 -0.000011 0
-0.000092 -0.000002 0
0.000000 -0.000000 0
0.000019 -0.000227 0
0.000044 -0.000229 0
0.000069 -0.000187 0
0.000091 -0.000117 0
0.000108 -0.000013 0
0.000112 0.000123 0
0.000096 0.000271 0
0.000055 0.000393 0
-0.000002 0.000448 0
-0.000059 0.000415 0
-0.000100 0.000317 0
-0.000119 0.000196 0
-0.000119 0.000090 0
-0.000109 0.000015 0
-0.000096 -0.000028 0
-0.000083 -0.000046 0
-0.000072 -0.000046 0
-0.000065 -0.000033 0
-0.000061 -0.000014 0
-0.000061 -0.000003 0
0.000000 -0.000001 0
0.000010 -0.000245 0
0.000025 -0.000248 0
0.000039 -0.000205 0
0.000053 -0.000133 0
0.000063 -0.000023 0
0.000066 0.000125 0
0.000057 0.000292 0
0.000035 0.000433 0
0.000002 0.000496 0
-0.000031 0.000457 0
-0.000054 0.000341 0
-0.000063 0.000203 0
-0.000062 0.000085 0
-0.000055 0.000005 0
-0.000046 -0.000039 0
-0.000038 -0.000056 0
-0.000032 -0.000053 0
-0.000028 -0.000038 0
-0.000025 -0.000015 0
-0.000025 -0.000003 0
0.000000 -0.000000 0
0.000000 -0.000251 0
0.000001 -0.000255 0
0.000002 -0.000213 0
0.000002 -0.000140 0
0.000003 -0.000028 0
0.000003 0.000125 0
0.000004 0.000300 0
0.000005 0.000448 0
0.000006 0.000514 0
0.000007 0.000472 0
0.000008 0.000350 0
0.000009 0.000204 0
0.000010 0.000082 0
0.000010 -0.000000 0
0.000011 -0.000044 0
0.000012 -0.000060 0
0.000013 -0.000057 0
0.000013 -0.000040 0
0.000014 -0.000016 0
0.000014 -0.000003 0
0.000000 0.000000 0
-0.000010 -0.000245 0
-0.000023 -0.000249 0
-0.000036 -0.000207 0
-0.000048 -0.000135 0
-0.000057 -0.000025 0
-0.000060 0.000124 0
-0.000050 0.000291 0
-0.000025 0.000432 0
0.000010 0.000495 0
0.000045 0.000455 0
0.000069 0.000340 0
0.000081 0.000201 0
0.000081 0.000083 0
0.000076 0.000003 0
0.000069 -0.000041 0
0.000063 -0.000058 0
0.000058 -0.000055 0
0.000055 -0.000039 0
0.000053 -0.000016 0
0.000053 -0.000003 0
0.000000 -0.000000 0
-0.000020 -0.000228 0
-0.000044 -0.000230 0
-0.000067 -0.000189 0
-0.000088 -0.000119 0
-0.000103 -0.000016 0
-0.000106 0.000119 0
-0.000089 0.000266 0
-0.000047 0.000389 0
0.000012 0.000444 0
0.000072 0.000412 0
0.000115 0.000313 0
0.000136 0.000193 0
0.000139 0.000087 0
0.000131 0.000012 0
0.000120 -0.000031 0
0.000109 -0.000049 0
0.000100 -0.000049 0
0.000093 -0.000035 0
0.000090 -0.000014 0
0.000090 -0.000002 0
0.000000 -0.000001 0
-0.000026 -0.000203 0
-0.000057 -0.000201 0
-0.000087 -0.000162 0
-0.000113 -0.000097 0
-0.000130 -0.000006 0
-0.000130 0.000109 0
-0.000107 0.000231 0
-0.000056 0.000330 0
0.000015 0.000375 0
0.000086 0.000352 0
0.000140 0.000275 0
0.000169 0.000178 0
0.000176 0.000089 0
0.000170 0.000022 0
0.000158 -0.000019 0
0.000146 -0.000037 0
0.000135 -0.000040 0
0.000127 -0.000030 0
0.000123 -0.000012 0
0.000123 -0.000002 0
0.000000 -0.000000 0
-0.000030 -0.000171 0
-0.000065 -0.000168 0
-0.000097 -0.000132 0
-0.000123 -0.000075 0
-0.000138 0.000002 0
-0.000135 0.000095 0
-0.000108 0.000191 0
-0.000054 0.000267 0
0.000017 0.000302 0
0.000089 0.000287 0
0.000146 0.000231 0
0.000180 0.000157 0
0.000194 0.000085 0
0.000193 0.000029 0
0.000184 -0.000007 0
0.000173 -0.000026 0
0.000163 -0.000030 0
0.000155 -0.000024 0
0.000151 -0.000010 0
0.000151 -0.000002 0
0.000000 -0.000000 0
-0.000031 -0.000138 0
-0.000068 -0.000134 0
-0.000100 -0.000103 0
-0.000124 -0.000056 0
-0.000136 0.000006 0
-0.000129 0.000078 0
-0.000100 0.000150 0
-0.000049 0.000206 0
0.000018 0.000232 0
0.000086 0.000223 0
0.000142 0.000184 0
0.000180 0.000130 0
0.000199 0.000076 0
0.000204 0.000032 0
0.000200 0.000001 0
0.000192 -0.000016 0
0.000184 -0.000022 0
0.000177 -0.000018 0
0.000173 -0.000008 0
0.000173 -0.000002 0
0.000000 -0.000000 0
-0.000032 -0.000104 0
-0.000069 -0.000100 0
-0.000101 -0.000076 0
-0.000123 -0.000039 0
-0.000131 0.000007 0
-0.000121 0.000059 0
-0.000092 0.000110 0
-0.000043 0.000149 0
0.000018 0.000168 0
0.000081 0.000162 0
0.000135 0.000137 0
0.000175 0.000100 0
0.000199 0.000061 0
0.000209 0.000028 0
0.000210 0.000005 0
0.000206 -0.000010 0
0.000199 -0.000015 0
0.000194 -0.000013 0
0.000190 -0.000006 0
0.000190 -0.000001 0
0.000000 -0.000000 0
-0.000033 -0.000069 0
-0.000071 -0.000066 0
-0.000102 -0.000049 0
-0.000123 -0.000025 0
-0.000129 0.000006 0
-0.000118 0.000039 0
-0.000088 0.000071 0
-0.000041 0.000096 0
0.000016 0.000108 0
0.000076 0.000105 0
0.000130 0.000090 0
0.000171 0.000067 0
0.000198 0.000042 0
0.000212 0.000021 0
0.000217 0.000004 0
0.000215 -0.000005 0
0.000210 -0.000009 0
0.000205 -0.000009 0
0.000201 -0.000004 0
0.000201 -0.000001 0
0.000000 -0.000000 0
-0.000033 -0.000033 0
-0.000069 -0.000032 0
-0.000099 -0.000024 0
-0.000119 -0.000012 0
-0.000124 0.000002 0
-0.000113 0.000018 0
-0.000085 0.000033 0
-0.000042 0.000045 0
0.000011 0.000050 0
0.000066 0.000049 0
0.000116 0.000042 0
0.000156 0.000032 0
0.000183 0.000020 0
0.000198 0.000010 0
0.000204 0.000002 0
0.000203 -0.000003 0
0.000198 -0.000005 0
0.000193 -0.000004 0
0.000190 -0.000002 0
0.000189 -0.000000 0
0.000000 0.000000 0
0.000000 0.000000 0
-0.000000 0.000000 0
-0.000000 0.000000 0
-0.000000 0.000000 0
-0.000000 0.000000 0
-0.000000 0.000000 0
-0.000000 0.000000 0
-0.000000 0.000000 0
0.000000 0.000000 0
0.000000 0.000000 0
0.000000 0.000000 0
0.000000 0.000000 0
0.000000 0.000000 0
0.000000 0.000000 0
0.000000 0.000000 0
0.000000 0.000000 0
0.000000 0.000000 0
0.000000 0.000000 0
0.000000 0.000000 0
0.000000 0.000000 0

CELL_DATA 400 
SCALARS pressure float 1 
LOOKUP_TABLE default 
0.242579
0.242572
0.242609
0.242650
0.242667
0.242656
0.242628
0.242600
0.242585
0.242584
0.242594
0.242606
0.242615
0.242620
0.242620
0.242618
0.242617
0.242616
0.242617
0.242617
0.219602
0.219632
0.219641
0.219629
0.219608
0.219593
0.219589
0.219595
0.219606
0.219616
0.219621
0.219621
0.219618
0.219615
0.219613
0.219613
0.219614
0.219615
0.219616
0.219617
0.196644
0.196633
0.196604
0.196582
0.196580
0.196595
0.196615
0.196629
0.196633
0.196628
0.196619
0.196612
0.196608
0.196608
0.196610
0.196613
0.196615
0.196617
0.196617
0.196618
0.173634
0.173605
0.173588
0.173592
0.173609
0.173626
0.173634
0.173632
0.173623
0.173613
0.173607
0.173605
0.173607
0.173611
0.173614
0.173616
0.173617
0.173618
0.173618
0.173619
0.150610
0.150607
0.150612
0.150620
0.150624
0.150623
0.150618
0.150613
0.150609
0.150608
0.150609
0.150612
0.150614
0.150615
0.150616
0.150617
0.150617
0.150617
0.150618
0.150619
0.127614
0.127625
0.127625
0.127618
0.127610
0.127605
0.127605
0.127608
0.127613
0.127616
0.127618
0.127617
0.127616
0.127615
0.127615
0.127616
0.127617
0.127617
0.127618
0.127619
0.104627
0.104627
0.104617
0.104607
0.104602
0.104605
0.104611
0.104618
0.104621
0.104621
0.104618
0.104616
0.104614
0.104614
0.104615
0.104616
0.104617
0.104618
0.104619
0.104619
0.081624
0.081619
0.081613
0.081610
0.081612
0.081616
0.081619
0.081620
0.081619
0.081617
0.081615
0.081615
0.081615
0.081616
0.081617
0.081618
0.081619
0.081619
0.081620
0.081620
0.058617
0.058619
0.058621
0.058621
0.058620
0.058618
0.058616
0.058615
0.058615
0.058616
0.058617
0.058617
0.058618
0.058618
0.058619
0.058619
0.058619
0.058620
0.058620
0.058621
0.035618
0.035625
0.035626
0.035623
0.035619
0.035615
0.035614
0.035615
0.035618
0.035620
0.035621
0.035621
0.035620
0.035620
0.035620
0.035620
0.035620
0.035621
0.035621
0.035621
0.012623
0.012626
0.012625
0.012621
0.012618
0.012617
0.012618
0.012620
0.012622
0.012623
0.012623
0.012622
0.012622
0.012621
0.012621
0.012621
0.012622
0.012622
0.012622
0.012622
-0.010376
-0.010376
-0.010376
-0.010377
-0.010377
-0.010377
-0.010377
-0.010376
-0.010376
-0.010376
-0.010376
-0.010376
-0.010376
-0.010377
-0.010377
-0.010377
-0.010377
-0.010377
-0.010377
-0.010377
-0.033377
-0.033375
-0.033373
-0.033372
-0.033373
-0.033374
-0.033375
-0.033375
-0.033375
-0.033374
-0.033374
-0.033374
-0.033374
-0.033374
-0.033375
-0.033375
-0.033376
-0.033376
-0.033376
-0.033377
-0.056376
-0.056373
-0.056371
-0.056371
-0.056371
-0.056373
-0.056373
-0.056373
-0.056372
-0.056371
-0.056371
-0.056371
-0.056372
-0.056373
-0.056373
-0.056374
-0.056375
-0.056375
-0.056376
-0.056376
-0.079373
-0.079372
-0.079371
-0.079371
-0.079371
-0.079371
-0.079371
-0.079370
-0.079370
-0.079369
-0.079369
-0.079370
-0.079370
-0.079371
-0.079372
-0.079373
-0.079374
-0.079374
-0.079375
-0.079375
-0.102372
-0.102372
-0.102371
-0.102370
-0.102369
-0.102369
-0.102369
-0.102369
-0.102368
-0.102368
-0.102368
-0.102369
-0.102369
-0.102370
-0.102371
-0.102372
-0.102373
-0.102373
-0.102374
-0.102375
-0.125371
-0.125371
-0.125370
-0.125368
-0.125368
-0.125367
-0.125368
-0.125368
-0.125368
-0.125368
-0.125368
-0.125368
-0.125368
-0.125369
-0.125370
-0.125371
-0.125372
-0.125372
-0.125373
-0.125374
-0.148371
-0.148370
-0.148369
-0.148368
-0.148367
-0.148367
-0.148367
-0.148367
-0.148367
-0.148366
-0.148366
-0.148367
-0.148367
-0.148368
-0.148369
-0.148370
-0.148371
-0.148372
-0.148373
-0.148374
-0.171370
-0.171370
-0.171369
-0.171368
-0.171367
-0.171366
-0.171366
-0.171366
-0.171365
-0.171365
-0.171365
-0.171366
-0.171366
-0.171367
-0.171368
-0.171369
-0.171370
-0.171371
-0.171372
-0.171373
-0.194369
-0.194370
-0.194369
-0.194368
-0.194367
-0.194365
-0.194365
-0.194364
-0.194364
-0.194364
-0.194364
-0.194365
-0.194365
-0.194366
-0.194367
-0.194368
-0.194369
-0.194370
-0.194371
-0.194372

SCALARS temperature float 1 
LOOKUP_TABLE default 
0.000024
0.000195
0.000525
0.000988
0.001546
0.002148
0.002734
0.003244
0.003627
0.003849
0.003901
0.003801
0.003584
0.003292
0.002972
0.002660
0.002386
0.002168
0.002019
0.001943
0.000026
0.000211
0.000566
0.001067
0.001671
0.002325
0.002963
0.003517
0.003929
0.004161
0.004205
0.004082
0.003831
0.003504
0.003148
0.002807
0.002508
0.002273
0.002112
0.002031
0.000031
0.000242
0.000652
0.001233
0.001938
0.002704
0.003453
0.004101
0.004576
0.004828
0.004850
0.004671
0.004345
0.003936
0.003505
0.003098
0.002748
0.002476
0.002292
0.002200
0.000037
0.000294
0.000793
0.001505
0.002378
0.003336
0.004278
0.005091
0.005673
0.005955
0.005930
0.005644
0.005178
0.004624
0.004060
0.003543
0.003109
0.002778
0.002556
0.002446
0.000047
0.000368
0.000998
0.001907
0.003038
0.004297
0.005550
0.006631
0.007384
0.007704
0.007583
0.007104
0.006401
0.005608
0.004834
0.004150
0.003593
0.003176
0.002901
0.002765
0.000060
0.000468
0.001276
0.002461
0.003965
0.005673
0.007403
0.008906
0.009926
0.010290
0.009989
0.009179
0.008087
0.006923
0.005838
0.004916
0.004188
0.003657
0.003313
0.003145
0.000077
0.000592
0.001626
0.003172
0.005181
0.007527
0.009963
0.012109
0.013538
0.013945
0.013328
0.011975
0.010279
0.008570
0.007053
0.005815
0.004869
0.004197
0.003770
0.003564
0.000095
0.000733
0.002028
0.004006
0.006651
0.009838
0.013256
0.016332
0.018360
0.018806
0.017674
0.015494
0.012927
0.010480
0.008409
0.006786
0.005587
0.004756
0.004237
0.003989
0.000114
0.000873
0.002436
0.004872
0.008225
0.012406
0.017045
0.021336
0.024163
0.024636
0.022775
0.019476
0.015799
0.012464
0.009767
0.007730
0.006270
0.005281
0.004673
0.004385
0.000129
0.000991
0.002782
0.005620
0.009621
0.014764
0.020649
0.026238
0.029935
0.030426
0.027744
0.023230
0.018403
0.014200
0.010920
0.008517
0.006835
0.005713
0.005031
0.004709
0.000138
0.001061
0.002990
0.006074
0.010480
0.016250
0.022980
0.029479
0.033797
0.034304
0.031043
0.025675
0.020067
0.015296
0.011648
0.009021
0.007202
0.006000
0.005272
0.004930
0.000139
0.001071
0.003016
0.006122
0.010555
0.016353
0.023116
0.029658
0.034021
0.034545
0.031278
0.025894
0.020269
0.015479
0.011811
0.009164
0.007328
0.006113
0.005375
0.005028
0.000133
0.001021
0.002862
0.005768
0.009848
0.015079
0.021064
0.026772
0.030588
0.031131
0.028436
0.023878
0.019001
0.014742
0.011403
0.008943
0.007210
0.006048
0.005338
0.005001
0.000121
0.000925
0.002573
0.005127
0.008618
0.012951
0.017754
0.022222
0.025209
0.025761
0.023892
0.020536
0.016784
0.013359
0.010565
0.008433
0.006891
0.005836
0.005182
0.004868
0.000105
0.000807
0.002225
0.004375
0.007224
0.010634
0.014279
0.017576
0.019788
0.020330
0.019203
0.016962
0.014296
0.011724
0.009518
0.007763
0.006448
0.005525
0.004943
0.004660
0.000090
0.000690
0.001887
0.003661
0.005945
0.008588
0.011319
0.013730
0.015366
0.015886
0.015281
0.013858
0.012033
0.010161
0.008467
0.007058
0.005963
0.005174
0.004666
0.004416
0.000076
0.000590
0.001602
0.003073
0.004922
0.007004
0.009098
0.010919
0.012177
0.012668
0.012379
0.011482
0.010226
0.008856
0.007551
0.006419
0.005509
0.004835
0.004393
0.004174
0.000066
0.000514
0.001388
0.002642
0.004189
0.005897
0.007586
0.009042
0.010070
0.010534
0.010420
0.009830
0.008926
0.007883
0.006844
0.005909
0.005136
0.004550
0.004161
0.003965
0.000060
0.000464
0.001249
0.002365
0.003727
0.005213
0.006666
0.007918
0.008816
0.009259
0.009234
0.008808
0.008101
0.007248
0.006370
0.005559
0.004874
0.004347
0.003993
0.003814
0.000056
0.000439
0.001180
0.002230
0.003505
0.004888
0.006235
0.007395
0.008234
0.008667
0.008678
0.008323
0.007702
0.006935
0.006132
0.005380
0.004738
0.004241
0.003905
0.003734


SCALARS Species_1 float 1 
LOOKUP_TABLE default 
0.000568
0.001698
0.002813
0.003903
0.004959
0.005970
0.006928
0.007824
0.008650
0.009400
0.010069
0.010657
0.011162
0.011587
0.011936
0.012214
0.012427
0.012580
0.012680
0.012729
0.000567
0.001696
0.002809
0.003898
0.004952
0.005962
0.006919
0.007813
0.008638
0.009387
0.010056
0.010643
0.011148
0.011573
0.011921
0.012199
0.012412
0.012566
0.012666
0.012715
0.000566
0.001692
0.002803
0.003889
0.004940
0.005948
0.006902
0.007795
0.008618
0.009365
0.010033
0.010618
0.011122
0.011546
0.011894
0.012172
0.012385
0.012539
0.012638
0.012687
0.000564
0.001685
0.002792
0.003874
0.004921
0.005925
0.006876
0.007765
0.008585
0.009330
0.009995
0.010578
0.011080
0.011503
0.011850
0.012127
0.012339
0.012493
0.012592
0.012641
0.000560
0.001676
0.002776
0.003851
0.004893
0.005890
0.006836
0.007720
0.008535
0.009276
0.009937
0.010517
0.011017
0.011437
0.011782
0.012058
0.012269
0.012422
0.012521
0.012569
0.000556
0.001662
0.002753
0.003819
0.004852
0.005841
0.006778
0.007655
0.008464
0.009198
0.009854
0.010430
0.010925
0.011342
0.011684
0.011958
0.012168
0.012319
0.012417
0.012466
0.000549
0.001643
0.002721
0.003775
0.004796
0.005774
0.006700
0.007567
0.008366
0.009093
0.009741
0.010310
0.010799
0.011211
0.011550
0.011821
0.012028
0.012178
0.012275
0.012323
0.000541
0.001618
0.002680
0.003718
0.004723
0.005686
0.006599
0.007452
0.008239
0.008955
0.009593
0.010153
0.010635
0.011041
0.011375
0.011642
0.011846
0.011994
0.012090
0.012137
0.000531
0.001587
0.002629
0.003647
0.004633
0.005578
0.006473
0.007310
0.008082
0.008783
0.009409
0.009958
0.010431
0.010829
0.011157
0.011418
0.011619
0.011765
0.011859
0.011906
0.000518
0.001550
0.002568
0.003563
0.004526
0.005448
0.006322
0.007139
0.007893
0.008578
0.009189
0.009725
0.010187
0.010576
0.010896
0.011152
0.011349
0.011491
0.011583
0.011629
0.000504
0.001508
0.002498
0.003466
0.004402
0.005300
0.006150
0.006944
0.007677
0.008343
0.008937
0.009458
0.009907
0.010286
0.010597
0.010846
0.011038
0.011177
0.011267
0.011311
0.000489
0.001461
0.002421
0.003359
0.004266
0.005136
0.005959
0.006729
0.007439
0.008083
0.008659
0.009164
0.009599
0.009966
0.010268
0.010510
0.010696
0.010831
0.010919
0.010962
0.000472
0.001412
0.002339
0.003245
0.004122
0.004962
0.005757
0.006500
0.007186
0.007808
0.008364
0.008852
0.009272
0.009627
0.009920
0.010154
0.010334
0.010465
0.010550
0.010591
0.000455
0.001362
0.002255
0.003129
0.003975
0.004784
0.005551
0.006268
0.006928
0.007528
0.008064
0.008535
0.008940
0.009283
0.009566
0.009792
0.009966
0.010092
0.010174
0.010215
0.000439
0.001312
0.002174
0.003016
0.003831
0.004611
0.005350
0.006040
0.006677
0.007255
0.007772
0.008226
0.008618
0.008948
0.009221
0.009440
0.009608
0.009730
0.009810
0.009849
0.000424
0.001267
0.002098
0.002911
0.003698
0.004451
0.005163
0.005830
0.006444
0.007003
0.007502
0.007940
0.008319
0.008639
0.008903
0.009114
0.009277
0.009395
0.009472
0.009510
0.000410
0.001227
0.002032
0.002819
0.003581
0.004311
0.005001
0.005646
0.006242
0.006783
0.007267
0.007692
0.008059
0.008369
0.008625
0.008831
0.008989
0.009104
0.009178
0.009215
0.000399
0.001195
0.001979
0.002746
0.003488
0.004198
0.004871
0.005500
0.006080
0.006607
0.007078
0.007493
0.007851
0.008154
0.008404
0.008604
0.008759
0.008871
0.008944
0.008979
0.000392
0.001172
0.001942
0.002695
0.003423
0.004120
0.004780
0.005397
0.005966
0.006484
0.006947
0.007354
0.007706
0.008004
0.008249
0.008446
0.008598
0.008708
0.008780
0.008815
0.000388
0.001161
0.001923
0.002668
0.003389
0.004080
0.004733
0.005345
0.005908
0.006421
0.006880
0.007283
0.007632
0.007927
0.008170
0.008365
0.008516
0.008625
0.008696
0.008731


SCALARS Species_2 float 1 
LOOKUP_TABLE default 
0.000272
0.000807
0.001315
0.001782
0.002193
0.002539
0.002814
0.003014
0.003141
0.003199
0.003197
0.003143
0.003051
0.002933
0.002802
0.002670
0.002550
0.002451
0.002380
0.002344
0.000277
0.000822
0.001339
0.001814
0.002233
0.002586
0.002865
0.003070
0.003199
0.003259
0.003257
0.003203
0.003110
0.002990
0.002857
0.002723
0.002601
0.002500
0.002429
0.002392
0.000287
0.000851
0.001387
0.001879
0.002313
0.002678
0.002968
0.003180
0.003314
0.003377
0.003375
0.003320
0.003223
0.003099
0.002962
0.002824
0.002698
0.002594
0.002520
0.002482
0.000301
0.000894
0.001457