# vtk DataFile Version 2.0
generated by CFD-lab course output (written by Tobias Neckel) 
ASCII

DATASET STRUCTURED_GRID
DIMENSIONS  21 21 1 
POINTS 441 float

0.000000 0.000000 0
0.100000 0.000000 0
0.200000 0.000000 0
0.300000 0.000000 0
0.400000 0.000000 0
0.500000 0.000000 0
0.600000 0.000000 0
0.700000 0.000000 0
0.800000 0.000000 0
0.900000 0.000000 0
1.000000 0.000000 0
1.100000 0.000000 0
1.200000 0.000000 0
1.300000 0.000000 0
1.400000 0.000000 0
1.500000 0.000000 0
1.600000 0.000000 0
1.700000 0.000000 0
1.800000 0.000000 0
1.900000 0.000000 0
2.000000 0.000000 0
0.000000 0.100000 0
0.100000 0.100000 0
0.200000 0.100000 0
0.300000 0.100000 0
0.400000 0.100000 0
0.500000 0.100000 0
0.600000 0.100000 0
0.700000 0.100000 0
0.800000 0.100000 0
0.900000 0.100000 0
1.000000 0.100000 0
1.100000 0.100000 0
1.200000 0.100000 0
1.300000 0.100000 0
1.400000 0.100000 0
1.500000 0.100000 0
1.600000 0.100000 0
1.700000 0.100000 0
1.800000 0.100000 0
1.900000 0.100000 0
2.000000 0.100000 0
0.000000 0.200000 0
0.100000 0.200000 0
0.200000 0.200000 0
0.300000 0.200000 0
0.400000 0.200000 0
0.500000 0.200000 0
0.600000 0.200000 0
0.700000 0.200000 0
0.800000 0.200000 0
0.900000 0.200000 0
1.000000 0.200000 0
1.100000 0.200000 0
1.200000 0.200000 0
1.300000 0.200000 0
1.400000 0.200000 0
1.500000 0.200000 0
1.600000 0.200000 0
1.700000 0.200000 0
1.800000 0.200000 0
1.900000 0.200000 0
2.000000 0.200000 0
0.000000 0.300000 0
0.100000 0.300000 0
0.200000 0.300000 0
0.300000 0.300000 0
0.400000 0.300000 0
0.500000 0.300000 0
0.600000 0.300000 0
0.700000 0.300000 0
0.800000 0.300000 0
0.900000 0.300000 0
1.000000 0.300000 0
1.100000 0.300000 0
1.200000 0.300000 0
1.300000 0.300000 0
1.400000 0.300000 0
1.500000 0.300000 0
1.600000 0.300000 0
1.700000 0.300000 0
1.800000 0.300000 0
1.900000 0.300000 0
2.000000 0.300000 0
0.000000 0.400000 0
0.100000 0.400000 0
0.200000 0.400000 0
0.300000 0.400000 0
0.400000 0.400000 0
0.500000 0.400000 0
0.600000 0.400000 0
0.700000 0.400000 0
0.800000 0.400000 0
0.900000 0.400000 0
1.000000 0.400000 0
1.100000 0.400000 0
1.200000 0.400000 0
1.300000 0.400000 0
1.400000 0.400000 0
1.500000 0.400000 0
1.600000 0.400000 0
1.700000 0.400000 0
1.800000 0.400000 0
1.900000 0.400000 0
2.000000 0.400000 0
0.000000 0.500000 0
0.100000 0.500000 0
0.200000 0.500000 0
0.300000 0.500000 0
0.400000 0.500000 0
0.500000 0.500000 0
0.600000 0.500000 0
0.700000 0.500000 0
0.800000 0.500000 0
0.900000 0.500000 0
1.000000 0.500000 0
1.100000 0.500000 0
1.200000 0.500000 0
1.300000 0.500000 0
1.400000 0.500000 0
1.500000 0.500000 0
1.600000 0.500000 0
1.700000 0.500000 0
1.800000 0.500000 0
1.900000 0.500000 0
2.000000 0.500000 0
0.000000 0.600000 0
0.100000 0.600000 0
0.200000 0.600000 0
0.300000 0.600000 0
0.400000 0.600000 0
0.500000 0.600000 0
0.600000 0.600000 0
0.700000 0.600000 0
0.800000 0.600000 0
0.900000 0.600000 0
1.000000 0.600000 0
1.100000 0.600000 0
1.200000 0.600000 0
1.300000 0.600000 0
1.400000 0.600000 0
1.500000 0.600000 0
1.600000 0.600000 0
1.700000 0.600000 0
1.800000 0.600000 0
1.900000 0.600000 0
2.000000 0.600000 0
0.000000 0.700000 0
0.100000 0.700000 0
0.200000 0.700000 0
0.300000 0.700000 0
0.400000 0.700000 0
0.500000 0.700000 0
0.600000 0.700000 0
0.700000 0.700000 0
0.800000 0.700000 0
0.900000 0.700000 0
1.000000 0.700000 0
1.100000 0.700000 0
1.200000 0.700000 0
1.300000 0.700000 0
1.400000 0.700000 0
1.500000 0.700000 0
1.600000 0.700000 0
1.700000 0.700000 0
1.800000 0.700000 0
1.900000 0.700000 0
2.000000 0.700000 0
0.000000 0.800000 0
0.100000 0.800000 0
0.200000 0.800000 0
0.300000 0.800000 0
0.400000 0.800000 0
0.500000 0.800000 0
0.600000 0.800000 0
0.700000 0.800000 0
0.800000 0.800000 0
0.900000 0.800000 0
1.000000 0.800000 0
1.100000 0.800000 0
1.200000 0.800000 0
1.300000 0.800000 0
1.400000 0.800000 0
1.500000 0.800000 0
1.600000 0.800000 0
1.700000 0.800000 0
1.800000 0.800000 0
1.900000 0.800000 0
2.000000 0.800000 0
0.000000 0.900000 0
0.100000 0.900000 0
0.200000 0.900000 0
0.300000 0.900000 0
0.400000 0.900000 0
0.500000 0.900000 0
0.600000 0.900000 0
0.700000 0.900000 0
0.800000 0.900000 0
0.900000 0.900000 0
1.000000 0.900000 0
1.100000 0.900000 0
1.200000 0.900000 0
1.300000 0.900000 0
1.400000 0.900000 0
1.500000 0.900000 0
1.600000 0.900000 0
1.700000 0.900000 0
1.800000 0.900000 0
1.900000 0.900000 0
2.000000 0.900000 0
0.000000 1.000000 0
0.100000 1.000000 0
0.200000 1.000000 0
0.300000 1.000000 0
0.400000 1.000000 0
0.500000 1.000000 0
0.600000 1.000000 0
0.700000 1.000000 0
0.800000 1.000000 0
0.900000 1.000000 0
1.000000 1.000000 0
1.100000 1.000000 0
1.200000 1.000000 0
1.300000 1.000000 0
1.400000 1.000000 0
1.500000 1.000000 0
1.600000 1.000000 0
1.700000 1.000000 0
1.800000 1.000000 0
1.900000 1.000000 0
2.000000 1.000000 0
0.000000 1.100000 0
0.100000 1.100000 0
0.200000 1.100000 0
0.300000 1.100000 0
0.400000 1.100000 0
0.500000 1.100000 0
0.600000 1.100000 0
0.700000 1.100000 0
0.800000 1.100000 0
0.900000 1.100000 0
1.000000 1.100000 0
1.100000 1.100000 0
1.200000 1.100000 0
1.300000 1.100000 0
1.400000 1.100000 0
1.500000 1.100000 0
1.600000 1.100000 0
1.700000 1.100000 0
1.800000 1.100000 0
1.900000 1.100000 0
2.000000 1.100000 0
0.000000 1.200000 0
0.100000 1.200000 0
0.200000 1.200000 0
0.300000 1.200000 0
0.400000 1.200000 0
0.500000 1.200000 0
0.600000 1.200000 0
0.700000 1.200000 0
0.800000 1.200000 0
0.900000 1.200000 0
1.000000 1.200000 0
1.100000 1.200000 0
1.200000 1.200000 0
1.300000 1.200000 0
1.400000 1.200000 0
1.500000 1.200000 0
1.600000 1.200000 0
1.700000 1.200000 0
1.800000 1.200000 0
1.900000 1.200000 0
2.000000 1.200000 0
0.000000 1.300000 0
0.100000 1.300000 0
0.200000 1.300000 0
0.300000 1.300000 0
0.400000 1.300000 0
0.500000 1.300000 0
0.600000 1.300000 0
0.700000 1.300000 0
0.800000 1.300000 0
0.900000 1.300000 0
1.000000 1.300000 0
1.100000 1.300000 0
1.200000 1.300000 0
1.300000 1.300000 0
1.400000 1.300000 0
1.500000 1.300000 0
1.600000 1.300000 0
1.700000 1.300000 0
1.800000 1.300000 0
1.900000 1.300000 0
2.000000 1.300000 0
0.000000 1.400000 0
0.100000 1.400000 0
0.200000 1.400000 0
0.300000 1.400000 0
0.400000 1.400000 0
0.500000 1.400000 0
0.600000 1.400000 0
0.700000 1.400000 0
0.800000 1.400000 0
0.900000 1.400000 0
1.000000 1.400000 0
1.100000 1.400000 0
1.200000 1.400000 0
1.300000 1.400000 0
1.400000 1.400000 0
1.500000 1.400000 0
1.600000 1.400000 0
1.700000 1.400000 0
1.800000 1.400000 0
1.900000 1.400000 0
2.000000 1.400000 0
0.000000 1.500000 0
0.100000 1.500000 0
0.200000 1.500000 0
0.300000 1.500000 0
0.400000 1.500000 0
0.500000 1.500000 0
0.600000 1.500000 0
0.700000 1.500000 0
0.800000 1.500000 0
0.900000 1.500000 0
1.000000 1.500000 0
1.100000 1.500000 0
1.200000 1.500000 0
1.300000 1.500000 0
1.400000 1.500000 0
1.500000 1.500000 0
1.600000 1.500000 0
1.700000 1.500000 0
1.800000 1.500000 0
1.900000 1.500000 0
2.000000 1.500000 0
0.000000 1.600000 0
0.100000 1.600000 0
0.200000 1.600000 0
0.300000 1.600000 0
0.400000 1.600000 0
0.500000 1.600000 0
0.600000 1.600000 0
0.700000 1.600000 0
0.800000 1.600000 0
0.900000 1.600000 0
1.000000 1.600000 0
1.100000 1.600000 0
1.200000 1.600000 0
1.300000 1.600000 0
1.400000 1.600000 0
1.500000 1.600000 0
1.600000 1.600000 0
1.700000 1.600000 0
1.800000 1.600000 0
1.900000 1.600000 0
2.000000 1.600000 0
0.000000 1.700000 0
0.100000 1.700000 0
0.200000 1.700000 0
0.300000 1.700000 0
0.400000 1.700000 0
0.500000 1.700000 0
0.600000 1.700000 0
0.700000 1.700000 0
0.800000 1.700000 0
0.900000 1.700000 0
1.000000 1.700000 0
1.100000 1.700000 0
1.200000 1.700000 0
1.300000 1.700000 0
1.400000 1.700000 0
1.500000 1.700000 0
1.600000 1.700000 0
1.700000 1.700000 0
1.800000 1.700000 0
1.900000 1.700000 0
2.000000 1.700000 0
0.000000 1.800000 0
0.100000 1.800000 0
0.200000 1.800000 0
0.300000 1.800000 0
0.400000 1.800000 0
0.500000 1.800000 0
0.600000 1.800000 0
0.700000 1.800000 0
0.800000 1.800000 0
0.900000 1.800000 0
1.000000 1.800000 0
1.100000 1.800000 0
1.200000 1.800000 0
1.300000 1.800000 0
1.400000 1.800000 0
1.500000 1.800000 0
1.600000 1.800000 0
1.700000 1.800000 0
1.800000 1.800000 0
1.900000 1.800000 0
2.000000 1.800000 0
0.000000 1.900000 0
0.100000 1.900000 0
0.200000 1.900000 0
0.300000 1.900000 0
0.400000 1.900000 0
0.500000 1.900000 0
0.600000 1.900000 0
0.700000 1.900000 0
0.800000 1.900000 0
0.900000 1.900000 0
1.000000 1.900000 0
1.100000 1.900000 0
1.200000 1.900000 0
1.300000 1.900000 0
1.400000 1.900000 0
1.500000 1.900000 0
1.600000 1.900000 0
1.700000 1.900000 0
1.800000 1.900000 0
1.900000 1.900000 0
2.000000 1.900000 0
0.000000 2.000000 0
0.100000 2.000000 0
0.200000 2.000000 0
0.300000 2.000000 0
0.400000 2.000000 0
0.500000 2.000000 0
0.600000 2.000000 0
0.700000 2.000000 0
0.800000 2.000000 0
0.900000 2.000000 0
1.000000 2.000000 0
1.100000 2.000000 0
1.200000 2.000000 0
1.300000 2.000000 0
1.400000 2.000000 0
1.500000 2.000000 0
1.600000 2.000000 0
1.700000 2.000000 0
1.800000 2.000000 0
1.900000 2.000000 0
2.000000 2.000000 0
POINT_DATA 441 

VECTORS velocity float
0.000000 0.000000 0
0.000007 0.000000 0
-0.000002 0.000000 0
-0.000007 0.000000 0
-0.000006 0.000000 0
-0.000001 0.000000 0
0.000003 0.000000 0
0.000005 0.000000 0
0.000004 0.000000 0
0.000001 0.000000 0
-0.000001 0.000000 0
-0.000002 0.000000 0
-0.000002 0.000000 0
-0.000001 0.000000 0
-0.000000 0.000000 0
0.000000 0.000000 0
0.000000 0.000000 0
0.000000 0.000000 0
0.000000 0.000000 0
-0.000000 0.000000 0
-0.000000 0.000000 0
0.000000 0.000003 0
0.000004 -0.000000 0
-0.000000 -0.000012 0
-0.000003 -0.000012 0
-0.000001 -0.000004 0
0.000001 0.000006 0
0.000003 0.000012 0
0.000003 0.000011 0
0.000001 0.000007 0
-0.000001 0.000001 0
-0.000004 -0.000002 0
-0.000005 -0.000003 0
-0.000006 -0.000002 0
-0.000007 -0.000001 0
-0.000007 0.000000 0
-0.000007 0.000001 0
-0.000007 0.000001 0
-0.000007 0.000000 0
-0.000007 0.000000 0
-0.000007 0.000000 0
-0.000007 -0.000000 0
0.000000 -0.000007 0
-0.000004 -0.000008 0
0.000000 -0.000004 0
0.000004 0.000003 0
0.000006 0.000009 0
0.000005 0.000009 0
0.000002 0.000005 0
-0.000000 0.000001 0
-0.000002 -0.000002 0
-0.000003 -0.000002 0
-0.000004 -0.000000 0
-0.000005 0.000001 0
-0.000006 0.000002 0
-0.000006 0.000002 0
-0.000007 0.000002 0
-0.000007 0.000001 0
-0.000007 0.000000 0
-0.000007 -0.000000 0
-0.000007 -0.000000 0
-0.000007 -0.000000 0
-0.000007 -0.000000 0
0.000000 -0.000001 0
-0.000000 -0.000002 0
0.000005 0.000003 0
0.000007 0.000004 0
0.000005 0.000001 0
0.000002 -0.000002 0
0.000000 -0.000003 0
-0.000001 -0.000001 0
-0.000001 0.000002 0
-0.000002 0.000005 0
-0.000003 0.000006 0
-0.000005 0.000005 0
-0.000006 0.000004 0
-0.000007 0.000002 0
-0.000008 0.000001 0
-0.000008 0.000000 0
-0.000008 -0.000000 0
-0.000007 -0.000000 0
-0.000007 -0.000000 0
-0.000007 -0.000000 0
-0.000007 -0.000000 0
0.000000 0.000004 0
0.000003 0.000001 0
0.000005 -0.000002 0
0.000005 -0.000005 0
0.000004 -0.000006 0
0.000003 -0.000003 0
0.000003 0.000001 0
0.000002 0.000006 0
0.000001 0.000009 0
-0.000001 0.000009 0
-0.000004 0.000008 0
-0.000006 0.000006 0
-0.000008 0.000004 0
-0.000009 0.000002 0
-0.000009 0.000000 0
-0.000008 -0.000000 0
-0.000008 -0.000001 0
-0.000007 -0.000001 0
-0.000007 -0.000001 0
-0.000007 -0.000001 0
-0.000007 -0.000000 0
0.000000 0.000001 0
0.000001 -0.000004 0
0.000002 -0.000007 0
0.000004 -0.000006 0
0.000006 -0.000003 0
0.000007 0.000002 0
0.000007 0.000006 0
0.000005 0.000009 0
0.000002 0.000010 0
-0.000002 0.000010 0
-0.000005 0.000009 0
-0.000008 0.000007 0
-0.000010 0.000004 0
-0.000010 0.000002 0
-0.000010 0.000000 0
-0.000009 -0.000001 0
-0.000008 -0.000001 0
-0.000007 -0.000001 0
-0.000007 -0.000001 0
-0.000007 -0.000001 0
-0.000006 -0.000001 0
0.000000 -0.000001 0
-0.000001 -0.000007 0
0.000003 -0.000006 0
0.000006 -0.000004 0
0.000009 -0.000001 0
0.000010 0.000001 0
0.000009 0.000005 0
0.000007 0.000009 0
0.000003 0.000012 0
-0.000002 0.000014 0
-0.000007 0.000013 0
-0.000010 0.000009 0
-0.000011 0.000006 0
-0.000011 0.000002 0
-0.000010 -0.000000 0
-0.000009 -0.000001 0
-0.000008 -0.000002 0
-0.000007 -0.000002 0
-0.000007 -0.000001 0
-0.000006 -0.000001 0
-0.000006 -0.000001 0
0.000000 -0.000000 0
0.000000 -0.000008 0
0.000004 -0.000006 0
0.000007 -0.000006 0
0.000009 -0.000005 0
0.000011 -0.000002 0
0.000011 0.000003 0
0.000009 0.000010 0
0.000005 0.000017 0
-0.000001 0.000020 0
-0.000007 0.000018 0
-0.000012 0.000013 0
-0.000013 0.000007 0
-0.000012 0.000002 0
-0.000011 -0.000002 0
-0.000009 -0.000003 0
-0.000008 -0.000003 0
-0.000007 -0.000003 0
-0.000006 -0.000002 0
-0.000005 -0.000001 0
-0.000005 -0.000001 0
0.000000 0.000001 0
0.000001 -0.000009 0
0.000004 -0.000009 0
0.000006 -0.000010 0
0.000009 -0.000008 0
0.000011 -0.000004 0
0.000012 0.000004 0
0.000011 0.000014 0
0.000006 0.000024 0
-0.000001 0.000028 0
-0.000008 0.000024 0
-0.000013 0.000016 0
-0.000014 0.000007 0
-0.000013 -0.000000 0
-0.000011 -0.000004 0
-0.000008 -0.000005 0
-0.000007 -0.000005 0
-0.000006 -0.000004 0
-0.000005 -0.000003 0
-0.000004 -0.000001 0
-0.000004 -0.000001 0
0.000000 0.000000 0
0.000001 -0.000011 0
0.000002 -0.000012 0
0.000005 -0.000012 0
0.000007 -0.000010 0
0.000010 -0.000005 0
0.000011 0.000004 0
0.000011 0.000018 0
0.000006 0.000030 0
-0.000001 0.000035 0
-0.000007 0.000030 0
-0.000011 0.000018 0
-0.000012 0.000006 0
-0.000011 -0.000002 0
-0.000008 -0.000006 0
-0.000006 -0.000007 0
-0.000005 -0.000006 0
-0.000004 -0.000005 0
-0.000003 -0.000003 0
-0.000003 -0.000002 0
-0.000003 -0.000001 0
0.000000 -0.000000 0
-0.000000 -0.000013 0
0.000001 -0.000014 0
0.000003 -0.000013 0
0.000005 -0.000012 0
0.000006 -0.000006 0
0.000007 0.000004 0
0.000007 0.000019 0
0.000004 0.000034 0
-0.000000 0.000041 0
-0.000004 0.000035 0
-0.000007 0.000020 0
-0.000007 0.000006 0
-0.000006 -0.000004 0
-0.000004 -0.000008 0
-0.000003 -0.000008 0
-0.000002 -0.000007 0
-0.000002 -0.000005 0
-0.000001 -0.000004 0
-0.000001 -0.000002 0
-0.000001 -0.000001 0
0.000000 -0.000000 0
-0.000001 -0.000013 0
-0.000000 -0.000014 0
-0.000000 -0.000014 0
0.000000 -0.000012 0
0.000000 -0.000007 0
0.000000 0.000003 0
-0.000000 0.000019 0
-0.000000 0.000036 0
0.000000 0.000043 0
0.000000 0.000036 0
0.000001 0.000021 0
0.000001 0.000006 0
0.000001 -0.000004 0
0.000001 -0.000008 0
0.000001 -0.000009 0
0.000001 -0.000008 0
0.000001 -0.000006 0
0.000001 -0.000004 0
0.000001 -0.000002 0
0.000001 -0.000001 0
0.000000 -0.000000 0
-0.000001 -0.000013 0
-0.000002 -0.000013 0
-0.000003 -0.000013 0
-0.000004 -0.000012 0
-0.000006 -0.000007 0
-0.000007 0.000003 0
-0.000006 0.000019 0
-0.000004 0.000034 0
0.000001 0.000040 0
0.000005 0.000035 0
0.000008 0.000020 0
0.000008 0.000006 0
0.000007 -0.000003 0
0.000006 -0.000008 0
0.000005 -0.000008 0
0.000004 -0.000007 0
0.000003 -0.000005 0
0.000003 -0.000004 0
0.000003 -0.000002 0
0.000003 -0.000001 0
0.000000 -0.000000 0
-0.000001 -0.000011 0
-0.000003 -0.000012 0
-0.000005 -0.000012 0
-0.000007 -0.000010 0
-0.000010 -0.000005 0
-0.000011 0.000004 0
-0.000010 0.000017 0
-0.000006 0.000029 0
0.000001 0.000034 0
0.000008 0.000029 0
0.000012 0.000018 0
0.000013 0.000006 0
0.000012 -0.000002 0
0.000010 -0.000006 0
0.000008 -0.000007 0
0.000006 -0.000006 0
0.000005 -0.000005 0
0.000005 -0.000003 0
0.000004 -0.000002 0
0.000004 -0.000001 0
0.000000 -0.000000 0
-0.000002 -0.000010 0
-0.000004 -0.000010 0
-0.000006 -0.000009 0
-0.000009 -0.000007 0
-0.000011 -0.000003 0
-0.000012 0.000005 0
-0.000011 0.000014 0
-0.000006 0.000023 0
0.000001 0.000026 0
0.000009 0.000023 0
0.000013 0.000015 0
0.000015 0.000006 0
0.000014 -0.000000 0
0.000012 -0.000004 0
0.000010 -0.000005 0
0.000008 -0.000005 0
0.000007 -0.000004 0
0.000006 -0.000003 0
0.000006 -0.000001 0
0.000006 -0.000001 0
0.000000 -0.000000 0
-0.000002 -0.000008 0
-0.000004 -0.000008 0
-0.000006 -0.000007 0
-0.000008 -0.000005 0
-0.000010 -0.000001 0
-0.000011 0.000004 0
-0.000009 0.000011 0
-0.000005 0.000016 0
0.000001 0.000019 0
0.000008 0.000017 0
0.000012 0.000012 0
0.000014 0.000006 0
0.000014 0.000001 0
0.000012 -0.000002 0
0.000011 -0.000003 0
0.000009 -0.000003 0
0.000008 -0.000003 0
0.000007 -0.000002 0
0.000007 -0.000001 0
0.000007 -0.000001 0
0.000000 -0.000000 0
-0.000002 -0.000006 0
-0.000004 -0.000005 0
-0.000006 -0.000005 0
-0.000008 -0.000003 0
-0.000009 -0.000000 0
-0.000009 0.000004 0
-0.000007 0.000008 0
-0.000003 0.000012 0
0.000002 0.000013 0
0.000007 0.000012 0
0.000011 0.000009 0
0.000012 0.000005 0
0.000013 0.000002 0
0.000012 -0.000001 0
0.000011 -0.000002 0
0.000010 -0.000002 0
0.000009 -0.000002 0
0.000008 -0.000001 0
0.000008 -0.000001 0
0.000008 -0.000001 0
0.000000 -0.000000 0
-0.000001 -0.000004 0
-0.000003 -0.000004 0
-0.000005 -0.000003 0
-0.000006 -0.000002 0
-0.000007 0.000000 0
-0.000007 0.000003 0
-0.000005 0.000006 0
-0.000002 0.000008 0
0.000002 0.000009 0
0.000006 0.000008 0
0.000009 0.000006 0
0.000011 0.000004 0
0.000011 0.000002 0
0.000011 0.000000 0
0.000011 -0.000001 0
0.000010 -0.000001 0
0.000009 -0.000001 0
0.000009 -0.000001 0
0.000008 -0.000001 0
0.000008 -0.000000 0
0.000000 -0.000000 0
-0.000001 -0.000003 0
-0.000003 -0.000002 0
-0.000004 -0.000002 0
-0.000005 -0.000001 0
-0.000006 0.000000 0
-0.000005 0.000002 0
-0.000004 0.000004 0
-0.000001 0.000005 0
0.000002 0.000005 0
0.000005 0.000005 0
0.000008 0.000004 0
0.000009 0.000003 0
0.000010 0.000001 0
0.000010 0.000000 0
0.000010 -0.000000 0
0.000010 -0.000001 0
0.000009 -0.000001 0
0.000009 -0.000001 0
0.000009 -0.000000 0
0.000008 -0.000000 0
0.000000 -0.000000 0
-0.000001 -0.000001 0
-0.000002 -0.000001 0
-0.000004 -0.000001 0
-0.000004 -0.000000 0
-0.000005 0.000000 0
-0.000004 0.000001 0
-0.000003 0.000002 0
-0.000001 0.000002 0
0.000002 0.000002 0
0.000005 0.000002 0
0.000007 0.000002 0
0.000009 0.000001 0
0.000009 0.000001 0
0.000010 0.000000 0
0.000010 -0.000000 0
0.000009 -0.000000 0
0.000009 -0.000000 0
0.000009 -0.000000 0
0.000009 -0.000000 0
0.000008 -0.000000 0
0.000000 0.000000 0
0.000000 0.000000 0
0.000000 0.000000 0
-0.000000 0.000000 0
-0.000000 0.000000 0
-0.000000 0.000000 0
-0.000000 0.000000 0
-0.000000 0.000000 0
0.000000 0.000000 0
0.000000 0.000000 0
0.000000 0.000000 0
0.000000 0.000000 0
0.000000 0.000000 0
0.000000 0.000000 0
0.000000 0.000000 0
0.000000 0.000000 0
0.000000 0.000000 0
0.000000 0.000000 0
0.000000 0.000000 0
0.000000 0.000000 0
0.000000 0.000000 0

CELL_DATA 400 
SCALARS pressure float 1 
LOOKUP_TABLE default 
0.242617
0.242587
0.242596
0.242625
0.242651
0.242657
0.242645
0.242625
0.242610
0.242605
0.242607
0.242614
0.242620
0.242623
0.242624
0.242624
0.242623
0.242623
0.242622
0.242623
0.219605
0.219625
0.219639
0.219638
0.219626
0.219613
0.219606
0.219608
0.219614
0.219620
0.219624
0.219625
0.219624
0.219623
0.219622
0.219621
0.219621
0.219622
0.219622
0.219622
0.196634
0.196640
0.196624
0.196606
0.196597
0.196602
0.196614
0.196626
0.196631
0.196630
0.196626
0.196622
0.196619
0.196619
0.196619
0.196620
0.196621
0.196622
0.196622
0.196622
0.173636
0.173622
0.173608
0.173603
0.173610
0.173621
0.173629
0.173632
0.173629
0.173624
0.173620
0.173618
0.173618
0.173619
0.173620
0.173621
0.173622
0.173622
0.173622
0.173623
0.150620
0.150617
0.150618
0.150621
0.150623
0.150624
0.150623
0.150621
0.150620
0.150619
0.150619
0.150619
0.150620
0.150621
0.150621
0.150622
0.150622
0.150622
0.150622
0.150623
0.127618
0.127626
0.127628
0.127624
0.127619
0.127615
0.127615
0.127617
0.127619
0.127621
0.127622
0.127622
0.127621
0.127621
0.127621
0.127621
0.127622
0.127622
0.127622
0.127622
0.104623
0.104628
0.104625
0.104619
0.104614
0.104613
0.104616
0.104619
0.104622
0.104623
0.104623
0.104622
0.104621
0.104621
0.104621
0.104621
0.104622
0.104622
0.104622
0.104622
0.081623
0.081624
0.081622
0.081619
0.081618
0.081618
0.081619
0.081621
0.081622
0.081622
0.081621
0.081621
0.081621
0.081621
0.081621
0.081621
0.081622
0.081622
0.081622
0.081623
0.058620
0.058622
0.058623
0.058623
0.058622
0.058620
0.058620
0.058620
0.058620
0.058620
0.058621
0.058621
0.058621
0.058621
0.058622
0.058622
0.058622
0.058622
0.058622
0.058623
0.035619
0.035623
0.035625
0.035625
0.035623
0.035620
0.035619
0.035619
0.035620
0.035621
0.035622
0.035622
0.035622
0.035622
0.035622
0.035622
0.035622
0.035622
0.035622
0.035623
0.012621
0.012624
0.012625
0.012624
0.012623
0.012621
0.012620
0.012620
0.012621
0.012622
0.012623
0.012623
0.012623
0.012623
0.012622
0.012622
0.012622
0.012622
0.012623
0.012623
-0.010378
-0.010377
-0.010376
-0.010376
-0.010377
-0.010377
-0.010378
-0.010377
-0.010377
-0.010376
-0.010376
-0.010376
-0.010377
-0.010377
-0.010377
-0.010377
-0.010377
-0.010377
-0.010377
-0.010377
-0.033378
-0.033377
-0.033376
-0.033375
-0.033375
-0.033375
-0.033376
-0.033376
-0.033376
-0.033376
-0.033376
-0.033376
-0.033376
-0.033376
-0.033377
-0.033377
-0.033377
-0.033377
-0.033377
-0.033377
-0.056378
-0.056377
-0.056376
-0.056374
-0.056374
-0.056374
-0.056375
-0.056376
-0.056376
-0.056375
-0.056375
-0.056375
-0.056375
-0.056376
-0.056376
-0.056377
-0.056377
-0.056377
-0.056377
-0.056377
-0.079377
-0.079376
-0.079375
-0.079374
-0.079374
-0.079374
-0.079375
-0.079375
-0.079375
-0.079375
-0.079375
-0.079375
-0.079375
-0.079375
-0.079376
-0.079376
-0.079377
-0.079377
-0.079377
-0.079377
-0.102376
-0.102376
-0.102376
-0.102375
-0.102374
-0.102374
-0.102374
-0.102374
-0.102374
-0.102374
-0.102375
-0.102375
-0.102375
-0.102375
-0.102376
-0.102376
-0.102377
-0.102377
-0.102377
-0.102377
-0.125376
-0.125376
-0.125376
-0.125375
-0.125374
-0.125374
-0.125374
-0.125374
-0.125374
-0.125375
-0.125375
-0.125375
-0.125375
-0.125375
-0.125376
-0.125376
-0.125376
-0.125377
-0.125377
-0.125377
-0.148375
-0.148376
-0.148376
-0.148375
-0.148374
-0.148374
-0.148374
-0.148374
-0.148375
-0.148375
-0.148375
-0.148375
-0.148375
-0.148375
-0.148376
-0.148376
-0.148376
-0.148377
-0.148377
-0.148377
-0.171375
-0.171376
-0.171375
-0.171375
-0.171375
-0.171374
-0.171374
-0.171374
-0.171374
-0.171375
-0.171375
-0.171375
-0.171375
-0.171375
-0.171376
-0.171376
-0.171376
-0.171377
-0.171377
-0.171377
-0.194375
-0.194375
-0.194376
-0.194375
-0.194375
-0.194374
-0.194374
-0.194374
-0.194374
-0.194374
-0.194375
-0.194375
-0.194375
-0.194375
-0.194376
-0.194376
-0.194376
-0.194377
-0.194377
-0.194377

SCALARS temperature float 1 
LOOKUP_TABLE default 
0.000000
0.000001
0.000002
0.000004
0.000007
0.000012
0.000018
0.000023
0.000027
0.000027
0.000024
0.000020
0.000014
0.000009
0.000005
0.000003
0.000001
0.000001
0.000000
0.000000
0.000000
0.000001
0.000003
0.000007
0.000014
0.000023
0.000033
0.000043
0.000049
0.000050
0.000045
0.000036
0.000025
0.000016
0.000009
0.000005
0.000002
0.000001
0.000001
0.000000
0.000000
0.000002
0.000007
0.000016
0.000032
0.000054
0.000079
0.000102
0.000117
0.000118
0.000105
0.000083
0.000059
0.000037
0.000021
0.000011
0.000005
0.000002
0.000001
0.000001
0.000001
0.000005
0.000017
0.000040
0.000078
0.000132
0.000196
0.000255
0.000292
0.000294
0.000260
0.000204
0.000142
0.000088
0.000050
0.000025
0.000012
0.000005
0.000003
0.000002
0.000001
0.000012
0.000039
0.000092
0.000181
0.000310
0.000465
0.000610
0.000701
0.000704
0.000618
0.000478
0.000327
0.000200
0.000111
0.000056
0.000026
0.000012
0.000005
0.000003
0.000002
0.000024
0.000080
0.000193
0.000387
0.000673
0.001022
0.001356
0.001566
0.001569
0.001366
0.001041
0.000700
0.000421
0.000228
0.000113
0.000052
0.000023
0.000011
0.000006
0.000005
0.000045
0.000151
0.000368
0.000751
0.001328
0.002052
0.002761
0.003209
0.003209
0.002766
0.002072
0.001365
0.000802
0.000426
0.000207
0.000094
0.000041
0.000019
0.000011
0.000008
0.000076
0.000255
0.000629
0.001305
0.002355
0.003715
0.005082
0.005961
0.005953
0.005070
0.003723
0.002397
0.001376
0.000715
0.000341
0.000152
0.000066
0.000030
0.000017
0.000011
0.000112
0.000381
0.000952
0.002009
0.003701
0.005968
0.008316
0.009854
0.009829
0.008268
0.005948
0.003738
0.002096
0.001068
0.000501
0.000221
0.000094
0.000042
0.000025
0.000015
0.000146
0.000500
0.001263
0.002703
0.005068
0.008328
0.011799
0.014116
0.014071
0.011708
0.008273
0.005094
0.002802
0.001404
0.000651
0.000284
0.000120
0.000054
0.000031
0.000017
0.000167
0.000573
0.001456
0.003138
0.005941
0.009867
0.014114
0.016981
0.016924
0.013997
0.009791
0.005960
0.003245
0.001612
0.000742
0.000322
0.000136
0.000061
0.000035
0.000017
0.000167
0.000572
0.001451
0.003122
0.005899
0.009781
0.013974
0.016804
0.016752
0.013869
0.009717
0.005927
0.003233
0.001610
0.000743
0.000323
0.000137
0.000061
0.000036
0.000015
0.000146
0.000498
0.001252
0.002666
0.004974
0.008137
0.011490
0.013727
0.013693
0.011426
0.008109
0.005019
0.002777
0.001400
0.000653
0.000286
0.000122
0.000055
0.000032
0.000011
0.000113
0.000380
0.000944
0.001976
0.003614
0.005788
0.008029
0.009496
0.009482
0.008008
0.005797
0.003672
0.002077
0.001068
0.000506
0.000225
0.000097
0.000044
0.000026
0.000008
0.000077
0.000258
0.000630
0.001292
0.002310
0.003616
0.004919
0.005757
0.005756
0.004925
0.003645
0.002369
0.001376
0.000724
0.000351
0.000159
0.000070
0.000032
0.000019
0.000005
0.000048
0.000157
0.000378
0.000761
0.001330
0.002037
0.002723
0.003157
0.003161
0.002739
0.002070
0.001380
0.000822
0.000444
0.000220
0.000102
0.000045
0.000021
0.000013
0.000003
0.000027
0.000089
0.000210
0.000414
0.000709
0.001066
0.001403
0.001615
0.001620
0.001420
0.001093
0.000745
0.000455
0.000252
0.000127
0.000060
0.000027
0.000013
0.000008
0.000002
0.000015
0.000048
0.000111
0.000217
0.000365
0.000540
0.000703
0.000805
0.000809
0.000716
0.000560
0.000390
0.000243
0.000137
0.000071
0.000034
0.000016
0.000008
0.000005
0.000001
0.000008
0.000027
0.000062
0.000119
0.000198
0.000289
0.000373
0.000426
0.000429
0.000382
0.000303
0.000214
0.000136
0.000078
0.000041
0.000020
0.000010
0.000005
0.000003
0.000001
0.000006
0.000018
0.000042
0.000080
0.000132
0.000192
0.000247
0.000281
0.000284
0.000255
0.000203
0.000145
0.000093
0.000054
0.000029
0.000014
0.000007
0.000003
0.000002


SCALARS Species_1 float 1 
LOOKUP_TABLE default 
0.000112
0.000366
0.000707
0.001190
0.001858
0.002741
0.003835
0.005095
0.006427
0.007698
0.008757
0.009463
0.009722
0.009508
0.008876
0.007952
0.006904
0.005916
0.005154
0.004740
0.000129
0.000422
0.000813
0.001363
0.002124
0.003126
0.004363
0.005785
0.007284
0.008711
0.009896
0.010683
0.010967
0.010721
0.010007
0.008967
0.007789
0.006681
0.005826
0.005363
0.000160
0.000521
0.001002
0.001676
0.002605
0.003825
0.005328
0.007049
0.008859
0.010578
0.012000
0.012939
0.013269
0.012962
0.012093
0.010833
0.009412
0.008076
0.007047
0.006490
0.000201
0.000654
0.001256
0.002096
0.003251
0.004763
0.006621
0.008744
0.010972
0.013081
0.014821
0.015963
0.016355
0.015964
0.014886
0.013332
0.011583
0.009942
0.008680
0.007997
0.000248
0.000806
0.001544
0.002573
0.003983
0.005825
0.008085
0.010661
0.013358
0.015907
0.018004
0.019372
0.019834
0.019349
0.018035
0.016149
0.014032
0.012047
0.010523
0.009700
0.000295
0.000956
0.001830
0.003045
0.004706
0.006871
0.009523
0.012541
0.015697
0.018673
0.021116
0.022705
0.023233
0.022656
0.021113
0.018905
0.016429
0.014112
0.012333
0.011372
0.000334
0.001084
0.002073
0.003444
0.005315
0.007750
0.010728
0.014113
0.017648
0.020977
0.023706
0.025477
0.026059
0.025405
0.023675
0.021201
0.018430
0.015838
0.013850
0.012776
0.000361
0.001171
0.002235
0.003709
0.005717
0.008328
0.011516
0.015136
0.018913
0.022467
0.025376
0.027262
0.027879
0.027178
0.025329
0.022688
0.019731
0.016966
0.014846
0.013701
0.000371
0.001202
0.002292
0.003799
0.005850
0.008513
0.011763
0.015449
0.019291
0.022906
0.025863
0.027779
0.028405
0.027693
0.025814
0.023131
0.020128
0.017320
0.015166
0.014003
0.000362
0.001172
0.002234
0.003700
0.005692
0.008276
0.011427
0.014999
0.018721
0.022221
0.025085
0.026941
0.027550
0.026865
0.025051
0.022459
0.019556
0.016840
0.014757
0.013632
0.000336
0.001087
0.002070
0.003426
0.005266
0.007652
0.010559
0.013854
0.017287
0.020515
0.023157
0.024872
0.025439
0.024814
0.023150
0.020767
0.018097
0.015597
0.013678
0.012642
0.000296
0.000958
0.001824
0.003017
0.004636
0.006733
0.009287
0.012181
0.015196
0.018032
0.020355
0.021867
0.022372
0.021833
0.020380
0.018296
0.015957
0.013766
0.012083
0.011173
0.000249
0.000804
0.001531
0.002530
0.003886
0.005641
0.007779
0.010201
0.012725
0.015100
0.017049
0.018320
0.018752
0.018310
0.017104
0.015368
0.013416
0.011586
0.010178
0.009417
0.000199
0.000643
0.001224
0.002022
0.003104
0.004505
0.006211
0.008145
0.010161
0.012060
0.013620
0.014642
0.014995
0.014651
0.013697
0.012319
0.010765
0.009307
0.008184
0.007576
0.000152
0.000490
0.000933
0.001542
0.002367
0.003435
0.004736
0.006210
0.007749
0.009200
0.010394
0.011180
0.011457
0.011203
0.010483
0.009438
0.008257
0.007147
0.006291
0.005827
0.000111
0.000358
0.000681
0.001126
0.001728
0.002508
0.003458
0.004535
0.005661
0.006723
0.007601
0.008181
0.008390
0.008212
0.007692
0.006933
0.006073
0.005263
0.004637
0.004298
0.000078
0.000252
0.000480
0.000792
0.001217
0.001766
0.002435
0.003195
0.003990
0.004742
0.005364
0.005778
0.005931
0.005811
0.005450
0.004918
0.004314
0.003743
0.003302
0.003062
0.000054
0.000174
0.000331
0.000547
0.000841
0.001221
0.001684
0.002211
0.002763
0.003287
0.003721
0.004013
0.004124
0.004045
0.003799
0.003433
0.003016
0.002620
0.002314
0.002147
0.000038
0.000123
0.000235
0.000388
0.000597
0.000868
0.001198
0.001574
0.001969
0.002344
0.002657
0.002869
0.002952
0.002899
0.002726
0.002467
0.002170
0.001888
0.001669
0.001549
0.000030
0.000098
0.000188
0.000311
0.000478
0.000695
0.000960
0.001263
0.001581
0.001884
0.002137
0.002310
0.002379
0.002339
0.002201
0.001994
0.001756
0.001529
0.001352
0.001256


SCALARS Species_2 float 1 
LOOKUP_TABLE default 
0.000083
0.000245
0.000390
0.000509
0.000592
0.000634
0.000635
0.000598
0.000532
0.000450
0.000361
0.000276
0.000201
0.000140
0.000093
0.000059
0.000036
0.000022
0.000013
0.000009
0.000117
0.000343
0.000547
0.000712
0.000827
0.000884
0.000884
0.000831
0.000740
0.000625
0.000501
0.000383
0.000279
0.000194
0.000129
0.000082
0.000050
0.000030
0.000018
0.000013
0.000189
0.000554
0.000881
0.001146
0.001329
0.001419
0.001416
0.001330
0.001183
0.000997
0.000800
0.000611
0.000445
0.000309
0.000206
0.000131
0.000080