# vtk DataFile Version 2.0
generated by CFD-lab course output (written by Tobias Neckel) 
ASCII

DATASET STRUCTURED_GRID
DIMENSIONS  21 21 1 
POINTS 441 float

0.000000 0.000000 0
0.100000 0.000000 0
0.200000 0.000000 0
0.300000 0.000000 0
0.400000 0.000000 0
0.500000 0.000000 0
0.600000 0.000000 0
0.700000 0.000000 0
0.800000 0.000000 0
0.900000 0.000000 0
1.000000 0.000000 0
1.100000 0.000000 0
1.200000 0.000000 0
1.300000 0.000000 0
1.400000 0.000000 0
1.500000 0.000000 0
1.600000 0.000000 0
1.700000 0.000000 0
1.800000 0.000000 0
1.900000 0.000000 0
2.000000 0.000000 0
0.000000 0.100000 0
0.100000 0.100000 0
0.200000 0.100000 0
0.300000 0.100000 0
0.400000 0.100000 0
0.500000 0.100000 0
0.600000 0.100000 0
0.700000 0.100000 0
0.800000 0.100000 0
0.900000 0.100000 0
1.000000 0.100000 0
1.100000 0.100000 0
1.200000 0.100000 0
1.300000 0.100000 0
1.400000 0.100000 0
1.500000 0.100000 0
1.600000 0.100000 0
1.700000 0.100000 0
1.800000 0.100000 0
1.900000 0.100000 0
2.000000 0.100000 0
0.000000 0.200000 0
0.100000 0.200000 0
0.200000 0.200000 0
0.300000 0.200000 0
0.400000 0.200000 0
0.500000 0.200000 0
0.600000 0.200000 0
0.700000 0.200000 0
0.800000 0.200000 0
0.900000 0.200000 0
1.000000 0.200000 0
1.100000 0.200000 0
1.200000 0.200000 0
1.300000 0.200000 0
1.400000 0.200000 0
1.500000 0.200000 0
1.600000 0.200000 0
1.700000 0.200000 0
1.800000 0.200000 0
1.900000 0.200000 0
2.000000 0.200000 0
0.000000 0.300000 0
0.100000 0.300000 0
0.200000 0.300000 0
0.300000 0.300000 0
0.400000 0.300000 0
0.500000 0.300000 0
0.600000 0.300000 0
0.700000 0.300000 0
0.800000 0.300000 0
0.900000 0.300000 0
1.000000 0.300000 0
1.100000 0.300000 0
1.200000 0.300000 0
1.300000 0.300000 0
1.400000 0.300000 0
1.500000 0.300000 0
1.600000 0.300000 0
1.700000 0.300000 0
1.800000 0.300000 0
1.900000 0.300000 0
2.000000 0.300000 0
0.000000 0.400000 0
0.100000 0.400000 0
0.200000 0.400000 0
0.300000 0.400000 0
0.400000 0.400000 0
0.500000 0.400000 0
0.600000 0.400000 0
0.700000 0.400000 0
0.800000 0.400000 0
0.900000 0.400000 0
1.000000 0.400000 0
1.100000 0.400000 0
1.200000 0.400000 0
1.300000 0.400000 0
1.400000 0.400000 0
1.500000 0.400000 0
1.600000 0.400000 0
1.700000 0.400000 0
1.800000 0.400000 0
1.900000 0.400000 0
2.000000 0.400000 0
0.000000 0.500000 0
0.100000 0.500000 0
0.200000 0.500000 0
0.300000 0.500000 0
0.400000 0.500000 0
0.500000 0.500000 0
0.600000 0.500000 0
0.700000 0.500000 0
0.800000 0.500000 0
0.900000 0.500000 0
1.000000 0.500000 0
1.100000 0.500000 0
1.200000 0.500000 0
1.300000 0.500000 0
1.400000 0.500000 0
1.500000 0.500000 0
1.600000 0.500000 0
1.700000 0.500000 0
1.800000 0.500000 0
1.900000 0.500000 0
2.000000 0.500000 0
0.000000 0.600000 0
0.100000 0.600000 0
0.200000 0.600000 0
0.300000 0.600000 0
0.400000 0.600000 0
0.500000 0.600000 0
0.600000 0.600000 0
0.700000 0.600000 0
0.800000 0.600000 0
0.900000 0.600000 0
1.000000 0.600000 0
1.100000 0.600000 0
1.200000 0.600000 0
1.300000 0.600000 0
1.400000 0.600000 0
1.500000 0.600000 0
1.600000 0.600000 0
1.700000 0.600000 0
1.800000 0.600000 0
1.900000 0.600000 0
2.000000 0.600000 0
0.000000 0.700000 0
0.100000 0.700000 0
0.200000 0.700000 0
0.300000 0.700000 0
0.400000 0.700000 0
0.500000 0.700000 0
0.600000 0.700000 0
0.700000 0.700000 0
0.800000 0.700000 0
0.900000 0.700000 0
1.000000 0.700000 0
1.100000 0.700000 0
1.200000 0.700000 0
1.300000 0.700000 0
1.400000 0.700000 0
1.500000 0.700000 0
1.600000 0.700000 0
1.700000 0.700000 0
1.800000 0.700000 0
1.900000 0.700000 0
2.000000 0.700000 0
0.000000 0.800000 0
0.100000 0.800000 0
0.200000 0.800000 0
0.300000 0.800000 0
0.400000 0.800000 0
0.500000 0.800000 0
0.600000 0.800000 0
0.700000 0.800000 0
0.800000 0.800000 0
0.900000 0.800000 0
1.000000 0.800000 0
1.100000 0.800000 0
1.200000 0.800000 0
1.300000 0.800000 0
1.400000 0.800000 0
1.500000 0.800000 0
1.600000 0.800000 0
1.700000 0.800000 0
1.800000 0.800000 0
1.900000 0.800000 0
2.000000 0.800000 0
0.000000 0.900000 0
0.100000 0.900000 0
0.200000 0.900000 0
0.300000 0.900000 0
0.400000 0.900000 0
0.500000 0.900000 0
0.600000 0.900000 0
0.700000 0.900000 0
0.800000 0.900000 0
0.900000 0.900000 0
1.000000 0.900000 0
1.100000 0.900000 0
1.200000 0.900000 0
1.300000 0.900000 0
1.400000 0.900000 0
1.500000 0.900000 0
1.600000 0.900000 0
1.700000 0.900000 0
1.800000 0.900000 0
1.900000 0.900000 0
2.000000 0.900000 0
0.000000 1.000000 0
0.100000 1.000000 0
0.200000 1.000000 0
0.300000 1.000000 0
0.400000 1.000000 0
0.500000 1.000000 0
0.600000 1.000000 0
0.700000 1.000000 0
0.800000 1.000000 0
0.900000 1.000000 0
1.000000 1.000000 0
1.100000 1.000000 0
1.200000 1.000000 0
1.300000 1.000000 0
1.400000 1.000000 0
1.500000 1.000000 0
1.600000 1.000000 0
1.700000 1.000000 0
1.800000 1.000000 0
1.900000 1.000000 0
2.000000 1.000000 0
0.000000 1.100000 0
0.100000 1.100000 0
0.200000 1.100000 0
0.300000 1.100000 0
0.400000 1.100000 0
0.500000 1.100000 0
0.600000 1.100000 0
0.700000 1.100000 0
0.800000 1.100000 0
0.900000 1.100000 0
1.000000 1.100000 0
1.100000 1.100000 0
1.200000 1.100000 0
1.300000 1.100000 0
1.400000 1.100000 0
1.500000 1.100000 0
1.600000 1.100000 0
1.700000 1.100000 0
1.800000 1.100000 0
1.900000 1.100000 0
2.000000 1.100000 0
0.000000 1.200000 0
0.100000 1.200000 0
0.200000 1.200000 0
0.300000 1.200000 0
0.400000 1.200000 0
0.500000 1.200000 0
0.600000 1.200000 0
0.700000 1.200000 0
0.800000 1.200000 0
0.900000 1.200000 0
1.000000 1.200000 0
1.100000 1.200000 0
1.200000 1.200000 0
1.300000 1.200000 0
1.400000 1.200000 0
1.500000 1.200000 0
1.600000 1.200000 0
1.700000 1.200000 0
1.800000 1.200000 0
1.900000 1.200000 0
2.000000 1.200000 0
0.000000 1.300000 0
0.100000 1.300000 0
0.200000 1.300000 0
0.300000 1.300000 0
0.400000 1.300000 0
0.500000 1.300000 0
0.600000 1.300000 0
0.700000 1.300000 0
0.800000 1.300000 0
0.900000 1.300000 0
1.000000 1.300000 0
1.100000 1.300000 0
1.200000 1.300000 0
1.300000 1.300000 0
1.400000 1.300000 0
1.500000 1.300000 0
1.600000 1.300000 0
1.700000 1.300000 0
1.800000 1.300000 0
1.900000 1.300000 0
2.000000 1.300000 0
0.000000 1.400000 0
0.100000 1.400000 0
0.200000 1.400000 0
0.300000 1.400000 0
0.400000 1.400000 0
0.500000 1.400000 0
0.600000 1.400000 0
0.700000 1.400000 0
0.800000 1.400000 0
0.900000 1.400000 0
1.000000 1.400000 0
1.100000 1.400000 0
1.200000 1.400000 0
1.300000 1.400000 0
1.400000 1.400000 0
1.500000 1.400000 0
1.600000 1.400000 0
1.700000 1.400000 0
1.800000 1.400000 0
1.900000 1.400000 0
2.000000 1.400000 0
0.000000 1.500000 0
0.100000 1.500000 0
0.200000 1.500000 0
0.300000 1.500000 0
0.400000 1.500000 0
0.500000 1.500000 0
0.600000 1.500000 0
0.700000 1.500000 0
0.800000 1.500000 0
0.900000 1.500000 0
1.000000 1.500000 0
1.100000 1.500000 0
1.200000 1.500000 0
1.300000 1.500000 0
1.400000 1.500000 0
1.500000 1.500000 0
1.600000 1.500000 0
1.700000 1.500000 0
1.800000 1.500000 0
1.900000 1.500000 0
2.000000 1.500000 0
0.000000 1.600000 0
0.100000 1.600000 0
0.200000 1.600000 0
0.300000 1.600000 0
0.400000 1.600000 0
0.500000 1.600000 0
0.600000 1.600000 0
0.700000 1.600000 0
0.800000 1.600000 0
0.900000 1.600000 0
1.000000 1.600000 0
1.100000 1.600000 0
1.200000 1.600000 0
1.300000 1.600000 0
1.400000 1.600000 0
1.500000 1.600000 0
1.600000 1.600000 0
1.700000 1.600000 0
1.800000 1.600000 0
1.900000 1.600000 0
2.000000 1.600000 0
0.000000 1.700000 0
0.100000 1.700000 0
0.200000 1.700000 0
0.300000 1.700000 0
0.400000 1.700000 0
0.500000 1.700000 0
0.600000 1.700000 0
0.700000 1.700000 0
0.800000 1.700000 0
0.900000 1.700000 0
1.000000 1.700000 0
1.100000 1.700000 0
1.200000 1.700000 0
1.300000 1.700000 0
1.400000 1.700000 0
1.500000 1.700000 0
1.600000 1.700000 0
1.700000 1.700000 0
1.800000 1.700000 0
1.900000 1.700000 0
2.000000 1.700000 0
0.000000 1.800000 0
0.100000 1.800000 0
0.200000 1.800000 0
0.300000 1.800000 0
0.400000 1.800000 0
0.500000 1.800000 0
0.600000 1.800000 0
0.700000 1.800000 0
0.800000 1.800000 0
0.900000 1.800000 0
1.000000 1.800000 0
1.100000 1.800000 0
1.200000 1.800000 0
1.300000 1.800000 0
1.400000 1.800000 0
1.500000 1.800000 0
1.600000 1.800000 0
1.700000 1.800000 0
1.800000 1.800000 0
1.900000 1.800000 0
2.000000 1.800000 0
0.000000 1.900000 0
0.100000 1.900000 0
0.200000 1.900000 0
0.300000 1.900000 0
0.400000 1.900000 0
0.500000 1.900000 0
0.600000 1.900000 0
0.700000 1.900000 0
0.800000 1.900000 0
0.900000 1.900000 0
1.000000 1.900000 0
1.100000 1.900000 0
1.200000 1.900000 0
1.300000 1.900000 0
1.400000 1.900000 0
1.500000 1.900000 0
1.600000 1.900000 0
1.700000 1.900000 0
1.800000 1.900000 0
1.900000 1.900000 0
2.000000 1.900000 0
0.000000 2.000000 0
0.100000 2.000000 0
0.200000 2.000000 0
0.300000 2.000000 0
0.400000 2.000000 0
0.500000 2.000000 0
0.600000 2.000000 0
0.700000 2.000000 0
0.800000 2.000000 0
0.900000 2.000000 0
1.000000 2.000000 0
1.100000 2.000000 0
1.200000 2.000000 0
1.300000 2.000000 0
1.400000 2.000000 0
1.500000 2.000000 0
1.600000 2.000000 0
1.700000 2.000000 0
1.800000 2.000000 0
1.900000 2.000000 0
2.000000 2.000000 0
POINT_DATA 441 

VECTORS velocity float
0.000000 0.000000 0
-0.000004 0.000000 0
-0.000012 0.000000 0
-0.000002 0.000000 0
0.000005 0.000000 0
0.000005 0.000000 0
0.000002 0.000000 0
-0.000001 0.000000 0
-0.000001 0.000000 0
0.000000 0.000000 0
-0.000001 0.000000 0
-0.000001 0.000000 0
-0.000001 0.000000 0
-0.000000 0.000000 0
0.000000 0.000000 0
0.000000 0.000000 0
-0.000000 0.000000 0
-0.000000 0.000000 0
-0.000000 0.000000 0
-0.000000 0.000000 0
-0.000000 0.000000 0
0.000000 -0.000002 0
-0.000006 -0.000006 0
-0.000010 -0.000008 0
-0.000002 0.000001 0
0.000004 0.000008 0
0.000003 0.000007 0
-0.000000 0.000000 0
-0.000002 -0.000004 0
-0.000001 -0.000004 0
-0.000001 -0.000004 0
-0.000001 -0.000004 0
-0.000001 -0.000004 0
-0.000001 -0.000003 0
-0.000000 -0.000002 0
-0.000000 -0.000002 0
-0.000000 -0.000002 0
-0.000000 -0.000002 0
-0.000000 -0.000002 0
0.000000 -0.000001 0
0.000000 -0.000001 0
0.000000 -0.000001 0
0.000000 -0.000007 0
-0.000009 -0.000006 0
-0.000002 0.000001 0
0.000004 0.000006 0
0.000002 0.000003 0
-0.000002 -0.000003 0
-0.000004 -0.000006 0
-0.000002 -0.000005 0
-0.000000 -0.000004 0
-0.000001 -0.000004 0
-0.000000 -0.000003 0
0.000000 -0.000002 0
0.000000 -0.000001 0
-0.000000 -0.000001 0
-0.000000 -0.000002 0
-0.000000 -0.000002 0
-0.000000 -0.000002 0
-0.000000 -0.000002 0
0.000000 -0.000002 0
0.000000 -0.000002 0
0.000000 -0.000002 0
0.000000 -0.000002 0
-0.000005 -0.000004 0
0.000004 -0.000000 0
0.000002 -0.000001 0
-0.000003 -0.000005 0
-0.000005 -0.000007 0
-0.000002 -0.000005 0
-0.000000 -0.000002 0
0.000000 -0.000001 0
-0.000000 -0.000001 0
0.000000 -0.000000 0
0.000000 -0.000001 0
-0.000000 -0.000001 0
-0.000000 -0.000002 0
-0.000000 -0.000002 0
-0.000000 -0.000002 0
-0.000000 -0.000002 0
-0.000000 -0.000002 0
0.000000 -0.000002 0
0.000000 -0.000002 0
0.000000 -0.000002 0
0.000000 -0.000003 0
-0.000001 -0.000005 0
0.000004 -0.000004 0
-0.000001 -0.000005 0
-0.000005 -0.000006 0
-0.000003 -0.000003 0
0.000000 -0.000000 0
0.000001 0.000000 0
0.000000 0.000000 0
-0.000000 -0.000000 0
-0.000000 -0.000001 0
-0.000000 -0.000002 0
-0.000000 -0.000002 0
-0.000000 -0.000002 0
-0.000000 -0.000002 0
-0.000000 -0.000002 0
-0.000000 -0.000002 0
-0.000000 -0.000002 0
0.000000 -0.000002 0
0.000000 -0.000002 0
0.000000 -0.000002 0
0.000000 -0.000002 0
0.000004 -0.000004 0
0.000002 -0.000004 0
-0.000002 -0.000005 0
-0.000002 -0.000003 0
-0.000000 -0.000001 0
0.000001 -0.000000 0
0.000000 -0.000001 0
-0.000001 -0.000003 0
-0.000001 -0.000003 0
-0.000001 -0.000003 0
-0.000000 -0.000003 0
-0.000000 -0.000002 0
-0.000000 -0.000002 0
-0.000000 -0.000002 0
-0.000000 -0.000002 0
-0.000000 -0.000002 0
-0.000000 -0.000002 0
-0.000000 -0.000002 0
0.000000 -0.000002 0
0.000000 -0.000002 0
0.000000 0.000004 0
0.000005 -0.000001 0
0.000000 -0.000003 0
-0.000001 -0.000003 0
-0.000001 -0.000002 0
-0.000000 -0.000003 0
-0.000000 -0.000003 0
-0.000001 -0.000004 0
-0.000001 -0.000004 0
-0.000001 -0.000004 0
-0.000000 -0.000003 0
-0.000000 -0.000003 0
-0.000000 -0.000003 0
-0.000000 -0.000003 0
-0.000000 -0.000003 0
-0.000000 -0.000002 0
-0.000000 -0.000002 0
-0.000000 -0.000002 0
-0.000000 -0.000002 0
0.000000 -0.000002 0
0.000000 -0.000002 0
0.000000 0.000003 0
0.000002 -0.000001 0
-0.000000 -0.000004 0
-0.000000 -0.000003 0
-0.000001 -0.000004 0
-0.000001 -0.000004 0
-0.000001 -0.000004 0
-0.000001 -0.000004 0
-0.000000 -0.000003 0
0.000000 -0.000002 0
0.000000 -0.000002 0
-0.000000 -0.000003 0
-0.000000 -0.000003 0
-0.000000 -0.000003 0
-0.000000 -0.000002 0
-0.000000 -0.000002 0
-0.000000 -0.000002 0
-0.000000 -0.000002 0
-0.000000 -0.000002 0
-0.000000 -0.000002 0
0.000000 -0.000002 0
0.000000 -0.000002 0
-0.000001 -0.000004 0
0.000000 -0.000004 0
-0.000000 -0.000004 0
-0.000001 -0.000004 0
-0.000001 -0.000004 0
-0.000000 -0.000003 0
0.000000 -0.000002 0
0.000000 -0.000002 0
0.000000 -0.000002 0
-0.000000 -0.000002 0
-0.000000 -0.000003 0
-0.000000 -0.000003 0
-0.000000 -0.000003 0
-0.000000 -0.000002 0
-0.000000 -0.000002 0
-0.000000 -0.000002 0
-0.000000 -0.000002 0
-0.000000 -0.000002 0
-0.000000 -0.000002 0
0.000000 -0.000002 0
0.000000 -0.000003 0
-0.000000 -0.000005 0
0.000001 -0.000004 0
-0.000001 -0.000003 0
-0.000001 -0.000003 0
0.000000 -0.000002 0
0.000000 -0.000002 0
0.000000 -0.000002 0
-0.000000 -0.000002 0
-0.000000 -0.000003 0
-0.000000 -0.000003 0
-0.000000 -0.000002 0
-0.000000 -0.000002 0
-0.000000 -0.000002 0
-0.000000 -0.000003 0
-0.000000 -0.000002 0
-0.000000 -0.000002 0
-0.000000 -0.000002 0
-0.000000 -0.000002 0
-0.000000 -0.000002 0
-0.000000 -0.000002 0
0.000000 -0.000000 0
0.000001 -0.000004 0
0.000001 -0.000003 0
-0.000001 -0.000003 0
0.000000 -0.000003 0
0.000001 -0.000002 0
0.000000 -0.000003 0
-0.000000 -0.000003 0
-0.000000 -0.000003 0
-0.000000 -0.000002 0
-0.000000 -0.000002 0
-0.000000 -0.000002 0
-0.000000 -0.000002 0
-0.000000 -0.000002 0
-0.000000 -0.000002 0
-0.000000 -0.000002 0
-0.000000 -0.000002 0
-0.000000 -0.000002 0
-0.000000 -0.000002 0
-0.000000 -0.000002 0
-0.000000 -0.000002 0
0.000000 0.000001 0
0.000002 -0.000002 0
-0.000000 -0.000003 0
-0.000000 -0.000003 0
0.000001 -0.000003 0
0.000000 -0.000003 0
-0.000000 -0.000003 0
-0.000000 -0.000003 0
-0.000000 -0.000002 0
0.000000 -0.000002 0
0.000000 -0.000002 0
0.000000 -0.000002 0
0.000000 -0.000002 0
0.000000 -0.000002 0
0.000000 -0.000002 0
-0.000000 -0.000002 0
-0.000000 -0.000002 0
-0.000000 -0.000002 0
-0.000000 -0.000002 0
-0.000000 -0.000002 0
-0.000000 -0.000002 0
0.000000 0.000000 0
0.000001 -0.000003 0
-0.000000 -0.000003 0
0.000001 -0.000003 0
0.000000 -0.000003 0
-0.000000 -0.000003 0
0.000000 -0.000003 0
0.000000 -0.000002 0
0.000000 -0.000002 0
0.000000 -0.000002 0
0.000000 -0.000002 0
0.000000 -0.000002 0
0.000000 -0.000002 0
0.000000 -0.000002 0
0.000000 -0.000002 0
0.000000 -0.000002 0
-0.000000 -0.000002 0
-0.000000 -0.000002 0
-0.000000 -0.000002 0
-0.000000 -0.000002 0
-0.000000 -0.000002 0
0.000000 -0.000001 0
-0.000000 -0.000003 0
0.000001 -0.000003 0
0.000001 -0.000002 0
-0.000000 -0.000002 0
0.000000 -0.000002 0
0.000000 -0.000002 0
0.000000 -0.000002 0
0.000000 -0.000002 0
0.000000 -0.000002 0
0.000000 -0.000002 0
0.000000 -0.000002 0
0.000000 -0.000002 0
0.000000 -0.000002 0
0.000000 -0.000002 0
0.000000 -0.000002 0
0.000000 -0.000002 0
-0.000000 -0.000002 0
-0.000000 -0.000002 0
-0.000000 -0.000002 0
-0.000000 -0.000002 0
0.000000 -0.000001 0
0.000000 -0.000002 0
0.000001 -0.000002 0
0.000000 -0.000002 0
0.000000 -0.000002 0
0.000000 -0.000002 0
0.000000 -0.000002 0
0.000000 -0.000002 0
0.000000 -0.000002 0
0.000000 -0.000002 0
0.000000 -0.000002 0
0.000000 -0.000002 0
0.000000 -0.000002 0
0.000000 -0.000002 0
0.000000 -0.000002 0
0.000000 -0.000002 0
0.000000 -0.000002 0
-0.000000 -0.000002 0
-0.000000 -0.000002 0
-0.000000 -0.000002 0
-0.000000 -0.000001 0
0.000000 0.000000 0
0.000001 -0.000002 0
0.000001 -0.000002 0
0.000000 -0.000002 0
0.000000 -0.000002 0
0.000000 -0.000002 0
0.000000 -0.000002 0
0.000000 -0.000002 0
0.000000 -0.000001 0
0.000000 -0.000001 0
0.000000 -0.000001 0
0.000000 -0.000001 0
0.000000 -0.000001 0
0.000000 -0.000001 0
0.000000 -0.000001 0
0.000000 -0.000001 0
0.000000 -0.000001 0
-0.000000 -0.000001 0
-0.000000 -0.000001 0
-0.000000 -0.000001 0
-0.000000 -0.000001 0
0.000000 0.000000 0
0.000001 -0.000002 0
0.000000 -0.000002 0
0.000001 -0.000002 0
0.000001 -0.000001 0
0.000001 -0.000001 0
0.000000 -0.000001 0
0.000000 -0.000001 0
0.000000 -0.000001 0
0.000000 -0.000001 0
0.000000 -0.000001 0
0.000000 -0.000001 0
0.000000 -0.000001 0
0.000000 -0.000001 0
0.000000 -0.000001 0
0.000000 -0.000001 0
0.000000 -0.000001 0
0.000000 -0.000001 0
-0.000000 -0.000001 0
-0.000000 -0.000001 0
-0.000000 -0.000001 0
0.000000 -0.000000 0
0.000001 -0.000001 0
0.000001 -0.000001 0
0.000001 -0.000001 0
0.000001 -0.000001 0
0.000001 -0.000001 0
0.000000 -0.000001 0
0.000000 -0.000001 0
0.000000 -0.000001 0
0.000000 -0.000001 0
0.000000 -0.000001 0
0.000000 -0.000001 0
0.000000 -0.000001 0
0.000000 -0.000001 0
0.000000 -0.000001 0
0.000000 -0.000001 0
0.000000 -0.000001 0
0.000000 -0.000001 0
-0.000000 -0.000001 0
-0.000000 -0.000001 0
-0.000000 -0.000001 0
0.000000 -0.000000 0
0.000001 -0.000001 0
0.000001 -0.000001 0
0.000001 -0.000001 0
0.000001 -0.000001 0
0.000001 -0.000001 0
0.000000 -0.000001 0
0.000000 -0.000001 0
0.000000 -0.000001 0
0.000000 -0.000001 0
0.000000 -0.000001 0
0.000000 -0.000001 0
0.000000 -0.000001 0
0.000000 -0.000001 0
0.000000 -0.000001 0
0.000000 -0.000001 0
0.000000 -0.000001 0
0.000000 -0.000001 0
-0.000000 -0.000001 0
-0.000000 -0.000001 0
-0.000000 -0.000000 0
0.000000 -0.000000 0
0.000001 -0.000000 0
0.000001 -0.000000 0
0.000001 -0.000000 0
0.000001 -0.000000 0
0.000001 -0.000000 0
0.000001 -0.000000 0
0.000000 -0.000000 0
0.000000 -0.000000 0
0.000000 -0.000000 0
0.000000 -0.000000 0
0.000000 -0.000000 0
0.000000 -0.000000 0
0.000000 -0.000000 0
0.000000 -0.000000 0
0.000000 -0.000000 0
0.000000 -0.000000 0
0.000000 -0.000000 0
-0.000000 -0.000000 0
-0.000000 -0.000000 0
-0.000000 -0.000000 0
0.000000 0.000000 0
0.000000 0.000000 0
0.000000 0.000000 0
0.000000 0.000000 0
0.000000 0.000000 0
0.000000 0.000000 0
0.000000 0.000000 0
0.000000 0.000000 0
0.000000 0.000000 0
0.000000 0.000000 0
0.000000 0.000000 0
0.000000 0.000000 0
0.000000 0.000000 0
0.000000 0.000000 0
0.000000 0.000000 0
0.000000 0.000000 0
0.000000 0.000000 0
0.000000 0.000000 0
0.000000 0.000000 0
0.000000 0.000000 0
0.000000 0.000000 0

CELL_DATA 400 
SCALARS pressure float 1 
LOOKUP_TABLE default 
0.242575
0.242592
0.242640
0.242648
0.242629
0.242606
0.242600
0.242606
0.242608
0.242607
0.242609
0.242613
0.242616
0.242616
0.242615
0.242615
0.242615
0.242615
0.242615
0.242616
0.219582
0.219629
0.219630
0.219609
0.219596
0.219599
0.219612
0.219616
0.219615
0.219617
0.219619
0.219619
0.219617
0.219616
0.219616
0.219616
0.219616
0.219616
0.219616
0.219616
0.196611
0.196619
0.196600
0.196592
0.196599
0.196616
0.196625
0.196622
0.196620
0.196620
0.196618
0.196616
0.196615
0.196616
0.196617
0.196617
0.196616
0.196616
0.196616
0.196617
0.173620
0.173613
0.173597
0.173601
0.173618
0.173627
0.173622
0.173617
0.173616
0.173614
0.173613
0.173614
0.173615
0.173616
0.173617
0.173617
0.173617
0.173617
0.173617
0.173617
0.150633
0.150617
0.150604
0.150614
0.150622
0.150619
0.150613
0.150610
0.150611
0.150612
0.150615
0.150616
0.150616
0.150616
0.150617
0.150618
0.150618
0.150618
0.150618
0.150618
0.127640
0.127612
0.127610
0.127617
0.127615
0.127613
0.127612
0.127612
0.127616
0.127618
0.127618
0.127617
0.127617
0.127618
0.127618
0.127619
0.127619
0.127619
0.127619
0.127619
0.104624
0.104610
0.104616
0.104615
0.104616
0.104618
0.104618
0.104620
0.104622
0.104620
0.104619
0.104618
0.104619
0.104619
0.104619
0.104619
0.104619
0.104619
0.104620
0.104620
0.081610
0.081617
0.081617
0.081616
0.081621
0.081623
0.081623
0.081623
0.081621
0.081620
0.081620
0.081620
0.081620
0.081620
0.081620
0.081620
0.081620
0.081620
0.081620
0.081620
0.058617
0.058622
0.058617
0.058620
0.058623
0.058623
0.058622
0.058620
0.058620
0.058621
0.058621
0.058621
0.058621
0.058621
0.058621
0.058621
0.058621
0.058621
0.058621
0.058621
0.035628
0.035622
0.035620
0.035622
0.035622
0.035620
0.035620
0.035621
0.035622
0.035622
0.035622
0.035622
0.035622
0.035622
0.035622
0.035622
0.035622
0.035622
0.035622
0.035622
0.012629
0.012621
0.012622
0.012623
0.012622
0.012621
0.012623
0.012623
0.012623
0.012623
0.012623
0.012623
0.012623
0.012623
0.012623
0.012623
0.012623
0.012623
0.012623
0.012623
-0.010375
-0.010377
-0.010374
-0.010375
-0.010377
-0.010375
-0.010375
-0.010376
-0.010376
-0.010376
-0.010376
-0.010376
-0.010376
-0.010376
-0.010376
-0.010376
-0.010376
-0.010376
-0.010376
-0.010376
-0.033377
-0.033373
-0.033373
-0.033375
-0.033374
-0.033374
-0.033375
-0.033375
-0.033375
-0.033375
-0.033375
-0.033375
-0.033375
-0.033375
-0.033376
-0.033376
-0.033376
-0.033376
-0.033376
-0.033376
-0.056373
-0.056371
-0.056375
-0.056374
-0.056373
-0.056374
-0.056374
-0.056374
-0.056374
-0.056374
-0.056374
-0.056374
-0.056375
-0.056375
-0.056375
-0.056375
-0.056375
-0.056375
-0.056375
-0.056375
-0.079370
-0.079372
-0.079374
-0.079372
-0.079373
-0.079373
-0.079373
-0.079373
-0.079373
-0.079373
-0.079374
-0.079374
-0.079374
-0.079374
-0.079374
-0.079374
-0.079374
-0.079374
-0.079375
-0.079375
-0.102370
-0.102372
-0.102371
-0.102371
-0.102372
-0.102372
-0.102373
-0.102373
-0.102373
-0.102373
-0.102373
-0.102373
-0.102373
-0.102374
-0.102374
-0.102374
-0.102374
-0.102374
-0.102374
-0.102374
-0.125370
-0.125371
-0.125370
-0.125371
-0.125371
-0.125372
-0.125372
-0.125372
-0.125372
-0.125372
-0.125373
-0.125373
-0.125373
-0.125373
-0.125373
-0.125373
-0.125374
-0.125374
-0.125374
-0.125374
-0.148370
-0.148370
-0.148370
-0.148370
-0.148371
-0.148371
-0.148372
-0.148372
-0.148372
-0.148372
-0.148372
-0.148373
-0.148373
-0.148373
-0.148373
-0.148373
-0.148373
-0.148373
-0.148373
-0.148374
-0.171369
-0.171370
-0.171370
-0.171370
-0.171371
-0.171371
-0.171371
-0.171372
-0.171372
-0.171372
-0.171372
-0.171372
-0.171373
-0.171373
-0.171373
-0.171373
-0.171373
-0.171373
-0.171373
-0.171373
-0.194369
-0.194369
-0.194370
-0.194370
-0.194370
-0.194371
-0.194371
-0.194371
-0.194372
-0.194372
-0.194372
-0.194372
-0.194372
-0.194373
-0.194373
-0.194373
-0.194373
-0.194373
-0.194373
-0.194373

SCALARS temperature float 1 
LOOKUP_TABLE default 
0.000000
0.000000
0.000000
0.000000
0.000000
0.000000
0.000000
0.000000
0.000000
0.000000
0.000000
0.000000
0.000000
0.000000
0.000000
0.000000
0.000000
0.000000
0.000000
0.000000
0.000000
0.000000
0.000000
0.000000
0.000000
0.000000
0.000000
0.000000
0.000000
0.000000
0.000000
0.000000
0.000000
0.000000
0.000000
0.000000
0.000000
0.000000
0.000000
0.000000
0.000000
0.000000
0.000000
0.000000
0.000000
0.000000
0.000000
0.000000
0.000000
0.000000
0.000000
0.000000
0.000000
0.000000
0.000000
0.000000
0.000000
0.000000
0.000000
0.000000
0.000000
0.000000
0.000000
0.000000
0.000000
0.000000
0.000000
0.000000
0.000000
0.000000
0.000000
0.000000
0.000000
0.000000
0.000000
0.000000
0.000000
0.000000
0.000000
0.000000
0.000000
0.000000
0.000000
0.000000
0.000000
0.000000
0.000000
0.000000
0.000000
0.000000
0.000000
0.000000
0.000000
0.000000
0.000000
0.000000
0.000000
0.000000
0.000000
0.000000
0.000000
0.000000
0.000000
0.000000
0.000000
0.000000
0.000000
0.000001
0.000001
0.000001
0.000001
0.000000
0.000000
0.000000
0.000000
0.000000
0.000000
0.000000
0.000000
0.000000
0.000000
0.000000
0.000000
0.000000
0.000000
0.000001
0.000002
0.000005
0.000008
0.000008
0.000006
0.000003
0.000001
0.000000
0.000000
0.000000
0.000000
0.000000
0.000000
0.000000
0.000000
0.000000
0.000000
0.000000
0.000001
0.000003
0.000013
0.000030
0.000048
0.000049
0.000034
0.000016
0.000005
0.000001
0.000000
0.000000
0.000000
0.000000
0.000000
0.000000
0.000000
0.000000
0.000000
0.000000
0.000003
0.000014
0.000051
0.000121
0.000189
0.000195
0.000134
0.000061
0.000019
0.000004
0.000001
0.000000
0.000000
0.000000
0.000000
0.000000
0.000000
0.000000
0.000000
0.000001
0.000007
0.000036
0.000131
0.000313
0.000489
0.000501
0.000341
0.000155
0.000048
0.000011
0.000002
0.000000
0.000000
0.000000
0.000000
0.000000
0.000000
0.000000
0.000000
0.000001
0.000011
0.000058
0.000211
0.000504
0.000785
0.000804
0.000545
0.000247
0.000076
0.000017
0.000003
0.000000
0.000000
0.000000
0.000000
0.000000
0.000000
0.000000
0.000000
0.000001
0.000011
0.000058
0.000210
0.000500
0.000779
0.000799
0.000543
0.000247
0.000077
0.000017
0.000003
0.000000
0.000000
0.000000
0.000000
0.000000
0.000000
0.000000
0.000000
0.000001
0.000007
0.000037
0.000132
0.000312
0.000485
0.000499
0.000341
0.000157
0.000050
0.000011
0.000002
0.000000
0.000000
0.000000
0.000000
0.000000
0.000000
0.000000
0.000000
0.000000
0.000003
0.000015
0.000054
0.000127
0.000196
0.000203
0.000140
0.000066
0.000021
0.000005
0.000001
0.000000
0.000000
0.000000
0.000000
0.000000
0.000000
0.000000
0.000000
0.000000
0.000001
0.000004
0.000015
0.000035
0.000054
0.000056
0.000040
0.000019
0.000006
0.000002
0.000000
0.000000
0.000000
0.000000
0.000000
0.000000
0.000000
0.000000
0.000000
0.000000
0.000000
0.000001
0.000003
0.000007
0.000011
0.000011
0.000008
0.000004
0.000001
0.000000
0.000000
0.000000
0.000000
0.000000
0.000000
0.000000
0.000000
0.000000
0.000000
0.000000
0.000000
0.000000
0.000000
0.000001
0.000002
0.000002
0.000001
0.000001
0.000000
0.000000
0.000000
0.000000
0.000000
0.000000
0.000000
0.000000
0.000000
0.000000
0.000000
0.000000
0.000000
0.000000
0.000000
0.000000
0.000000
0.000000
0.000000
0.000000
0.000000
0.000000
0.000000
0.000000
0.000000
0.000000
0.000000
0.000000
0.000000
0.000000
0.000000
0.000000
0.000000
0.000000
0.000000
0.000000
0.000000
0.000000
0.000000
0.000000
0.000000
0.000000
0.000000
0.000000
0.000000
0.000000
0.000000
0.000000
0.000000
0.000000
0.000000
0.000000
0.000000
0.000000
0.000000
0.000000
0.000000
0.000000
0.000000
0.000000
0.000000
0.000000
0.000000
0.000000
0.000000
0.000000
0.000000
0.000000


SCALARS Species_1 float 1 
LOOKUP_TABLE default 
0.000000
0.000000
0.000000
0.000000
0.000000
0.000001
0.000004
0.000013
0.000037
0.000085
0.000158
0.000233
0.000271
0.000249
0.000183
0.000109
0.000054
0.000023
0.000008
0.000003
0.000000
0.000000
0.000000
0.000000
0.000001
0.000004
0.000014
0.000048
0.000132
0.000299
0.000546
0.000793
0.000911
0.000830
0.000605
0.000359
0.000177
0.000075
0.000028
0.000011
0.000000
0.000000
0.000000
0.000001
0.000003
0.000014
0.000055
0.000177
0.000479
0.001066
0.001916
0.002747
0.003122
0.002823
0.002047
0.001210
0.000597
0.000251
0.000094
0.000037
0.000000
0.000000
0.000000
0.000002
0.000011
0.000047
0.000177
0.000562
0.001492
0.003264
0.005782
0.008191
0.009225
0.008288
0.005981
0.003526
0.001737
0.000731
0.000273
0.000108
0.000000
0.000000
0.000001
0.000006
0.000031
0.000131
0.000479
0.001492
0.003896
0.008389
0.014666
0.020552
0.022960
0.020508
0.014745
0.008675
0.004270
0.001799
0.000671
0.000268
0.000000
0.000000
0.000003
0.000015
0.000071
0.000296
0.001065
0.003264
0.008389
0.017814
0.030779
0.042732
0.047409
0.042147
0.030220
0.017761
0.008742
0.003687
0.001379
0.000553
0.000000
0.000001
0.000005
0.000028
0.000131
0.000540
0.001915
0.005782
0.014665
0.030779
0.052657
0.072547
0.080052
0.070926
0.050780
0.029848
0.014711
0.006217
0.002333
0.000941
0.000000
0.000001
0.000008
0.000042
0.000193
0.000784
0.002745
0.008190
0.020551
0.042731
0.072546
0.099378
0.109258
0.096631
0.069189
0.040733
0.020130
0.008538
0.003218
0.001308
0.000000
0.000002
0.000009
0.000049
0.000224
0.000900
0.003119
0.009223
0.022958
0.047408
0.080051
0.109258
0.119906
0.106049
0.076067
0.044929
0.022301
0.009508
0.003606
0.001476
0.000000
0.000001
0.000009
0.000045
0.000206
0.000820
0.002821
0.008286
0.020506
0.042145
0.070924
0.096630
0.106049
0.093957
0.067630
0.040145
0.020047
0.008606
0.003289
0.001358
0.000000
0.000001
0.000006
0.000033
0.000151
0.000597
0.002044
0.005978
0.014742
0.030217
0.050778
0.069188
0.076067
0.067630
0.048937
0.029246
0.014719
0.006374
0.002459
0.001025
0.000000
0.000001
0.000004
0.000020
0.000090
0.000354
0.001208
0.003524
0.008672
0.017758
0.029846
0.040732
0.044929
0.040145
0.029246
0.017622
0.008953
0.003916
0.001527
0.000643
0.000000
0.000000
0.000002
0.000010
0.000044
0.000175
0.000595
0.001735
0.004267
0.008739
0.014708
0.020127
0.022298
0.020045
0.014718
0.008952
0.004596
0.002033
0.000802
0.000341
0.000000
0.000000
0.000001
0.000004
0.000019
0.000074
0.000251
0.000730
0.001795
0.003681
0.006207
0.008525
0.009493
0.008592
0.006363
0.003909
0.002030
0.000909
0.000363
0.000156
0.000000
0.000000
0.000000
0.000002
0.000007
0.000027
0.000092
0.000268
0.000659
0.001353
0.002287
0.003154
0.003532
0.003220
0.002406
0.001494
0.000785
0.000356
0.000144
0.000063
0.000000
0.000000
0.000000
0.000000
0.000002
0.000009
0.000030
0.000087
0.000214
0.000441
0.000748
0.001036
0.001167
0.001072
0.000809
0.000508
0.000270
0.000124
0.000051
0.000022
0.000000
0.000000
0.000000
0.000000
0.000001
0.000003
0.000009
0.000025
0.000063
0.000129
0.000220
0.000307
0.000347
0.000322
0.000245
0.000155
0.000084
0.000039
0.000016
0.000007
0.000000
0.000000
0.000000
0.000000
0.000000
0.000001
0.000002
0.000007
0.000017
0.000035
0.000059
0.000083
0.000094
0.000088
0.000068
0.000043
0.000024
0.000011
0.000005
0.000002
0.000000
0.000000
0.000000
0.000000
0.000000
0.000000
0.000001
0.000002
0.000004
0.000009
0.000015
0.000021
0.000024
0.000022
0.000017
0.000011
0.000006
0.000003
0.000001
0.000001
0.000000
0.000000
0.000000
0.000000
0.000000
0.000000
0.000000
0.000000
0.000001
0.000002
0.000004
0.000006
0.000006
0.000006
0.000005
0.000003
0.000002
0.000001
0.000000
0.000000


SCALARS Species_2 float 1 
LOOKUP_TABLE default 
0.000000
0.000000
0.000000
0.000000
0.000000
0.000000
0.000000
0.000000
0.000000
0.000000
0.000000
0.000000
0.000000
0.000000
0.000000
0.000000
0.000000
0.000000
0.000000
0.000000
0.000000
0.000000
0.000000
0.000000
0.000000
0.000000
0.000000
0.000000
0.000000
0.000000
0.000000
0.000000
0.000000
0.000000
0.000000
0.000000
0.000000
0.000000
0.000000
0.000000
0.000000