# vtk DataFile Version 2.0
generated by CFD-lab course output (written by Tobias Neckel) 
ASCII

DATASET STRUCTURED_GRID
DIMENSIONS  21 21 1 
POINTS 441 float

0.000000 0.000000 0
0.100000 0.000000 0
0.200000 0.000000 0
0.300000 0.000000 0
0.400000 0.000000 0
0.500000 0.000000 0
0.600000 0.000000 0
0.700000 0.000000 0
0.800000 0.000000 0
0.900000 0.000000 0
1.000000 0.000000 0
1.100000 0.000000 0
1.200000 0.000000 0
1.300000 0.000000 0
1.400000 0.000000 0
1.500000 0.000000 0
1.600000 0.000000 0
1.700000 0.000000 0
1.800000 0.000000 0
1.900000 0.000000 0
2.000000 0.000000 0
0.000000 0.100000 0
0.100000 0.100000 0
0.200000 0.100000 0
0.300000 0.100000 0
0.400000 0.100000 0
0.500000 0.100000 0
0.600000 0.100000 0
0.700000 0.100000 0
0.800000 0.100000 0
0.900000 0.100000 0
1.000000 0.100000 0
1.100000 0.100000 0
1.200000 0.100000 0
1.300000 0.100000 0
1.400000 0.100000 0
1.500000 0.100000 0
1.600000 0.100000 0
1.700000 0.100000 0
1.800000 0.100000 0
1.900000 0.100000 0
2.000000 0.100000 0
0.000000 0.200000 0
0.100000 0.200000 0
0.200000 0.200000 0
0.300000 0.200000 0
0.400000 0.200000 0
0.500000 0.200000 0
0.600000 0.200000 0
0.700000 0.200000 0
0.800000 0.200000 0
0.900000 0.200000 0
1.000000 0.200000 0
1.100000 0.200000 0
1.200000 0.200000 0
1.300000 0.200000 0
1.400000 0.200000 0
1.500000 0.200000 0
1.600000 0.200000 0
1.700000 0.200000 0
1.800000 0.200000 0
1.900000 0.200000 0
2.000000 0.200000 0
0.000000 0.300000 0
0.100000 0.300000 0
0.200000 0.300000 0
0.300000 0.300000 0
0.400000 0.300000 0
0.500000 0.300000 0
0.600000 0.300000 0
0.700000 0.300000 0
0.800000 0.300000 0
0.900000 0.300000 0
1.000000 0.300000 0
1.100000 0.300000 0
1.200000 0.300000 0
1.300000 0.300000 0
1.400000 0.300000 0
1.500000 0.300000 0
1.600000 0.300000 0
1.700000 0.300000 0
1.800000 0.300000 0
1.900000 0.300000 0
2.000000 0.300000 0
0.000000 0.400000 0
0.100000 0.400000 0
0.200000 0.400000 0
0.300000 0.400000 0
0.400000 0.400000 0
0.500000 0.400000 0
0.600000 0.400000 0
0.700000 0.400000 0
0.800000 0.400000 0
0.900000 0.400000 0
1.000000 0.400000 0
1.100000 0.400000 0
1.200000 0.400000 0
1.300000 0.400000 0
1.400000 0.400000 0
1.500000 0.400000 0
1.600000 0.400000 0
1.700000 0.400000 0
1.800000 0.400000 0
1.900000 0.400000 0
2.000000 0.400000 0
0.000000 0.500000 0
0.100000 0.500000 0
0.200000 0.500000 0
0.300000 0.500000 0
0.400000 0.500000 0
0.500000 0.500000 0
0.600000 0.500000 0
0.700000 0.500000 0
0.800000 0.500000 0
0.900000 0.500000 0
1.000000 0.500000 0
1.100000 0.500000 0
1.200000 0.500000 0
1.300000 0.500000 0
1.400000 0.500000 0
1.500000 0.500000 0
1.600000 0.500000 0
1.700000 0.500000 0
1.800000 0.500000 0
1.900000 0.500000 0
2.000000 0.500000 0
0.000000 0.600000 0
0.100000 0.600000 0
0.200000 0.600000 0
0.300000 0.600000 0
0.400000 0.600000 0
0.500000 0.600000 0
0.600000 0.600000 0
0.700000 0.600000 0
0.800000 0.600000 0
0.900000 0.600000 0
1.000000 0.600000 0
1.100000 0.600000 0
1.200000 0.600000 0
1.300000 0.600000 0
1.400000 0.600000 0
1.500000 0.600000 0
1.600000 0.600000 0
1.700000 0.600000 0
1.800000 0.600000 0
1.900000 0.600000 0
2.000000 0.600000 0
0.000000 0.700000 0
0.100000 0.700000 0
0.200000 0.700000 0
0.300000 0.700000 0
0.400000 0.700000 0
0.500000 0.700000 0
0.600000 0.700000 0
0.700000 0.700000 0
0.800000 0.700000 0
0.900000 0.700000 0
1.000000 0.700000 0
1.100000 0.700000 0
1.200000 0.700000 0
1.300000 0.700000 0
1.400000 0.700000 0
1.500000 0.700000 0
1.600000 0.700000 0
1.700000 0.700000 0
1.800000 0.700000 0
1.900000 0.700000 0
2.000000 0.700000 0
0.000000 0.800000 0
0.100000 0.800000 0
0.200000 0.800000 0
0.300000 0.800000 0
0.400000 0.800000 0
0.500000 0.800000 0
0.600000 0.800000 0
0.700000 0.800000 0
0.800000 0.800000 0
0.900000 0.800000 0
1.000000 0.800000 0
1.100000 0.800000 0
1.200000 0.800000 0
1.300000 0.800000 0
1.400000 0.800000 0
1.500000 0.800000 0
1.600000 0.800000 0
1.700000 0.800000 0
1.800000 0.800000 0
1.900000 0.800000 0
2.000000 0.800000 0
0.000000 0.900000 0
0.100000 0.900000 0
0.200000 0.900000 0
0.300000 0.900000 0
0.400000 0.900000 0
0.500000 0.900000 0
0.600000 0.900000 0
0.700000 0.900000 0
0.800000 0.900000 0
0.900000 0.900000 0
1.000000 0.900000 0
1.100000 0.900000 0
1.200000 0.900000 0
1.300000 0.900000 0
1.400000 0.900000 0
1.500000 0.900000 0
1.600000 0.900000 0
1.700000 0.900000 0
1.800000 0.900000 0
1.900000 0.900000 0
2.000000 0.900000 0
0.000000 1.000000 0
0.100000 1.000000 0
0.200000 1.000000 0
0.300000 1.000000 0
0.400000 1.000000 0
0.500000 1.000000 0
0.600000 1.000000 0
0.700000 1.000000 0
0.800000 1.000000 0
0.900000 1.000000 0
1.000000 1.000000 0
1.100000 1.000000 0
1.200000 1.000000 0
1.300000 1.000000 0
1.400000 1.000000 0
1.500000 1.000000 0
1.600000 1.000000 0
1.700000 1.000000 0
1.800000 1.000000 0
1.900000 1.000000 0
2.000000 1.000000 0
0.000000 1.100000 0
0.100000 1.100000 0
0.200000 1.100000 0
0.300000 1.100000 0
0.400000 1.100000 0
0.500000 1.100000 0
0.600000 1.100000 0
0.700000 1.100000 0
0.800000 1.100000 0
0.900000 1.100000 0
1.000000 1.100000 0
1.100000 1.100000 0
1.200000 1.100000 0
1.300000 1.100000 0
1.400000 1.100000 0
1.500000 1.100000 0
1.600000 1.100000 0
1.700000 1.100000 0
1.800000 1.100000 0
1.900000 1.100000 0
2.000000 1.100000 0
0.000000 1.200000 0
0.100000 1.200000 0
0.200000 1.200000 0
0.300000 1.200000 0
0.400000 1.200000 0
0.500000 1.200000 0
0.600000 1.200000 0
0.700000 1.200000 0
0.800000 1.200000 0
0.900000 1.200000 0
1.000000 1.200000 0
1.100000 1.200000 0
1.200000 1.200000 0
1.300000 1.200000 0
1.400000 1.200000 0
1.500000 1.200000 0
1.600000 1.200000 0
1.700000 1.200000 0
1.800000 1.200000 0
1.900000 1.200000 0
2.000000 1.200000 0
0.000000 1.300000 0
0.100000 1.300000 0
0.200000 1.300000 0
0.300000 1.300000 0
0.400000 1.300000 0
0.500000 1.300000 0
0.600000 1.300000 0
0.700000 1.300000 0
0.800000 1.300000 0
0.900000 1.300000 0
1.000000 1.300000 0
1.100000 1.300000 0
1.200000 1.300000 0
1.300000 1.300000 0
1.400000 1.300000 0
1.500000 1.300000 0
1.600000 1.300000 0
1.700000 1.300000 0
1.800000 1.300000 0
1.900000 1.300000 0
2.000000 1.300000 0
0.000000 1.400000 0
0.100000 1.400000 0
0.200000 1.400000 0
0.300000 1.400000 0
0.400000 1.400000 0
0.500000 1.400000 0
0.600000 1.400000 0
0.700000 1.400000 0
0.800000 1.400000 0
0.900000 1.400000 0
1.000000 1.400000 0
1.100000 1.400000 0
1.200000 1.400000 0
1.300000 1.400000 0
1.400000 1.400000 0
1.500000 1.400000 0
1.600000 1.400000 0
1.700000 1.400000 0
1.800000 1.400000 0
1.900000 1.400000 0
2.000000 1.400000 0
0.000000 1.500000 0
0.100000 1.500000 0
0.200000 1.500000 0
0.300000 1.500000 0
0.400000 1.500000 0
0.500000 1.500000 0
0.600000 1.500000 0
0.700000 1.500000 0
0.800000 1.500000 0
0.900000 1.500000 0
1.000000 1.500000 0
1.100000 1.500000 0
1.200000 1.500000 0
1.300000 1.500000 0
1.400000 1.500000 0
1.500000 1.500000 0
1.600000 1.500000 0
1.700000 1.500000 0
1.800000 1.500000 0
1.900000 1.500000 0
2.000000 1.500000 0
0.000000 1.600000 0
0.100000 1.600000 0
0.200000 1.600000 0
0.300000 1.600000 0
0.400000 1.600000 0
0.500000 1.600000 0
0.600000 1.600000 0
0.700000 1.600000 0
0.800000 1.600000 0
0.900000 1.600000 0
1.000000 1.600000 0
1.100000 1.600000 0
1.200000 1.600000 0
1.300000 1.600000 0
1.400000 1.600000 0
1.500000 1.600000 0
1.600000 1.600000 0
1.700000 1.600000 0
1.800000 1.600000 0
1.900000 1.600000 0
2.000000 1.600000 0
0.000000 1.700000 0
0.100000 1.700000 0
0.200000 1.700000 0
0.300000 1.700000 0
0.400000 1.700000 0
0.500000 1.700000 0
0.600000 1.700000 0
0.700000 1.700000 0
0.800000 1.700000 0
0.900000 1.700000 0
1.000000 1.700000 0
1.100000 1.700000 0
1.200000 1.700000 0
1.300000 1.700000 0
1.400000 1.700000 0
1.500000 1.700000 0
1.600000 1.700000 0
1.700000 1.700000 0
1.800000 1.700000 0
1.900000 1.700000 0
2.000000 1.700000 0
0.000000 1.800000 0
0.100000 1.800000 0
0.200000 1.800000 0
0.300000 1.800000 0
0.400000 1.800000 0
0.500000 1.800000 0
0.600000 1.800000 0
0.700000 1.800000 0
0.800000 1.800000 0
0.900000 1.800000 0
1.000000 1.800000 0
1.100000 1.800000 0
1.200000 1.800000 0
1.300000 1.800000 0
1.400000 1.800000 0
1.500000 1.800000 0
1.600000 1.800000 0
1.700000 1.800000 0
1.800000 1.800000 0
1.900000 1.800000 0
2.000000 1.800000 0
0.000000 1.900000 0
0.100000 1.900000 0
0.200000 1.900000 0
0.300000 1.900000 0
0.400000 1.900000 0
0.500000 1.900000 0
0.600000 1.900000 0
0.700000 1.900000 0
0.800000 1.900000 0
0.900000 1.900000 0
1.000000 1.900000 0
1.100000 1.900000 0
1.200000 1.900000 0
1.300000 1.900000 0
1.400000 1.900000 0
1.500000 1.900000 0
1.600000 1.900000 0
1.700000 1.900000 0
1.800000 1.900000 0
1.900000 1.900000 0
2.000000 1.900000 0
0.000000 2.000000 0
0.100000 2.000000 0
0.200000 2.000000 0
0.300000 2.000000 0
0.400000 2.000000 0
0.500000 2.000000 0
0.600000 2.000000 0
0.700000 2.000000 0
0.800000 2.000000 0
0.900000 2.000000 0
1.000000 2.000000 0
1.100000 2.000000 0
1.200000 2.000000 0
1.300000 2.000000 0
1.400000 2.000000 0
1.500000 2.000000 0
1.600000 2.000000 0
1.700000 2.000000 0
1.800000 2.000000 0
1.900000 2.000000 0
2.000000 2.000000 0
POINT_DATA 441 

VECTORS velocity float
0.000000 0.000000 0
0.000001 0.000000 0
0.000009 0.000000 0
0.000008 0.000000 0
0.000002 0.000000 0
-0.000004 0.000000 0
-0.000006 0.000000 0
-0.000005 0.000000 0
-0.000002 0.000000 0
0.000001 0.000000 0
0.000002 0.000000 0
0.000002 0.000000 0
0.000001 0.000000 0
0.000000 0.000000 0
-0.000000 0.000000 0
-0.000001 0.000000 0
-0.000001 0.000000 0
-0.000000 0.000000 0
-0.000000 0.000000 0
-0.000000 0.000000 0
-0.000000 0.000000 0
0.000000 0.000007 0
0.000024 -0.000013 0
0.000052 -0.000008 0
0.000070 -0.000010 0
0.000078 -0.000014 0
0.000077 -0.000011 0
0.000066 -0.000001 0
0.000047 0.000015 0
0.000020 0.000029 0
-0.000014 0.000038 0
-0.000051 0.000040 0
-0.000086 0.000036 0
-0.000118 0.000028 0
-0.000142 0.000019 0
-0.000159 0.000011 0
-0.000169 0.000005 0
-0.000174 0.000002 0
-0.000175 -0.000000 0
-0.000174 -0.000001 0
-0.000173 -0.000001 0
-0.000173 -0.000000 0
0.000000 0.000007 0
0.000027 -0.000040 0
0.000049 -0.000047 0
0.000069 -0.000041 0
0.000083 -0.000024 0
0.000087 0.000002 0
0.000079 0.000031 0
0.000058 0.000056 0
0.000024 0.000072 0
-0.000018 0.000078 0
-0.000062 0.000075 0
-0.000103 0.000066 0
-0.000137 0.000052 0
-0.000162 0.000038 0
-0.000178 0.000025 0
-0.000188 0.000014 0
-0.000192 0.000006 0
-0.000193 0.000001 0
-0.000192 -0.000001 0
-0.000191 -0.000001 0
-0.000191 -0.000001 0
0.000000 -0.000003 0
0.000021 -0.000077 0
0.000048 -0.000075 0
0.000075 -0.000052 0
0.000094 -0.000019 0
0.000100 0.000018 0
0.000091 0.000053 0
0.000065 0.000082 0
0.000026 0.000103 0
-0.000021 0.000114 0
-0.000068 0.000113 0
-0.000110 0.000101 0
-0.000144 0.000083 0
-0.000168 0.000061 0
-0.000183 0.000039 0
-0.000191 0.000022 0
-0.000193 0.000008 0
-0.000192 0.000001 0
-0.000190 -0.000003 0
-0.000189 -0.000002 0
-0.000188 -0.000001 0
0.000000 -0.000004 0
0.000024 -0.000104 0
0.000058 -0.000094 0
0.000088 -0.000064 0
0.000108 -0.000026 0
0.000114 0.000016 0
0.000103 0.000062 0
0.000075 0.000107 0
0.000033 0.000142 0
-0.000019 0.000162 0
-0.000072 0.000162 0
-0.000118 0.000145 0
-0.000154 0.000115 0
-0.000177 0.000081 0
-0.000189 0.000050 0
-0.000193 0.000025 0
-0.000192 0.000007 0
-0.000189 -0.000002 0
-0.000185 -0.000005 0
-0.000182 -0.000003 0
-0.000182 -0.000001 0
0.000000 0.000001 0
0.000031 -0.000130 0
0.000067 -0.000124 0
0.000098 -0.000093 0
0.000120 -0.000048 0
0.000129 0.000011 0
0.000121 0.000078 0
0.000093 0.000144 0
0.000045 0.000196 0
-0.000015 0.000222 0
-0.000076 0.000218 0
-0.000129 0.000189 0
-0.000167 0.000145 0
-0.000188 0.000097 0
-0.000196 0.000055 0
-0.000195 0.000023 0
-0.000189 0.000003 0
-0.000182 -0.000008 0
-0.000176 -0.000009 0
-0.000172 -0.000005 0
-0.000172 -0.000002 0
0.000000 0.000002 0
0.000034 -0.000165 0
0.000070 -0.000164 0
0.000104 -0.000127 0
0.000131 -0.000067 0
0.000146 0.000011 0
0.000142 0.000100 0
0.000113 0.000188 0
0.000059 0.000256 0
-0.000011 0.000288 0
-0.000083 0.000278 0
-0.000141 0.000234 0
-0.000179 0.000172 0
-0.000196 0.000108 0
-0.000198 0.000055 0
-0.000191 0.000017 0
-0.000180 -0.000006 0
-0.000170 -0.000015 0
-0.000162 -0.000015 0
-0.000157 -0.000007 0
-0.000157 -0.000002 0
0.000000 -0.000001 0
0.000032 -0.000204 0
0.000070 -0.000203 0
0.000107 -0.000158 0
0.000138 -0.000086 0
0.000158 0.000008 0
0.000157 0.000119 0
0.000127 0.000231 0
0.000069 0.000320 0
-0.000008 0.000361 0
-0.000086 0.000345 0
-0.000147 0.000282 0
-0.000182 0.000198 0
-0.000194 0.000116 0
-0.000190 0.000050 0
-0.000178 0.000006 0
-0.000164 -0.000018 0
-0.000151 -0.000026 0
-0.000141 -0.000022 0
-0.000136 -0.000010 0
-0.000136 -0.000002 0
0.000000 -0.000002 0
0.000029 -0.000240 0
0.000065 -0.000239 0
0.000100 -0.000190 0
0.000131 -0.000111 0
0.000152 -0.000003 0
0.000154 0.000131 0
0.000129 0.000272 0
0.000073 0.000387 0
-0.000005 0.000440 0
-0.000082 0.000416 0
-0.000140 0.000331 0
-0.000170 0.000220 0
-0.000177 0.000118 0
-0.000168 0.000040 0
-0.000152 -0.000009 0
-0.000136 -0.000033 0
-0.000122 -0.000038 0
-0.000113 -0.000030 0
-0.000107 -0.000012 0
-0.000107 -0.000002 0
0.000000 -0.000000 0
0.000024 -0.000268 0
0.000052 -0.000272 0
0.000079 -0.000222 0
0.000105 -0.000139 0
0.000123 -0.000017 0
0.000128 0.000139 0
0.000110 0.000310 0
0.000065 0.000452 0
-0.000000 0.000516 0
-0.000066 0.000482 0
-0.000113 0.000372 0
-0.000135 0.000235 0
-0.000136 0.000114 0
-0.000125 0.000026 0
-0.000111 -0.000025 0
-0.000096 -0.000048 0
-0.000084 -0.000050 0
-0.000076 -0.000037 0
-0.000072 -0.000015 0
-0.000071 -0.000003 0
0.000000 0.000000 0
0.000014 -0.000289 0
0.000029 -0.000296 0
0.000044 -0.000246 0
0.000059 -0.000159 0
0.000071 -0.000028 0
0.000076 0.000145 0
0.000067 0.000338 0
0.000041 0.000500 0
0.000004 0.000572 0
-0.000034 0.000529 0
-0.000061 0.000399 0
-0.000072 0.000243 0
-0.000071 0.000108 0
-0.000064 0.000014 0
-0.000054 -0.000038 0
-0.000045 -0.000060 0
-0.000038 -0.000059 0
-0.000032 -0.000042 0
-0.000030 -0.000017 0
-0.000030 -0.000003 0
0.000000 -0.000001 0
0.000001 -0.000298 0
0.000001 -0.000305 0
0.000002 -0.000254 0
0.000002 -0.000165 0
0.000003 -0.000032 0
0.000005 0.000147 0
0.000006 0.000347 0
0.000007 0.000516 0
0.000007 0.000591 0
0.000008 0.000545 0
0.000008 0.000409 0
0.000009 0.000245 0
0.000010 0.000105 0
0.000011 0.000009 0
0.000012 -0.000044 0
0.000013 -0.000064 0
0.000014 -0.000062 0
0.000015 -0.000045 0
0.000016 -0.000018 0
0.000016 -0.000003 0
0.000000 -0.000001 0
-0.000011 -0.000292 0
-0.000026 -0.000297 0
-0.000041 -0.000246 0
-0.000055 -0.000159 0
-0.000065 -0.000029 0
-0.000067 0.000143 0
-0.000056 0.000335 0
-0.000028 0.000497 0
0.000010 0.000570 0
0.000049 0.000527 0
0.000077 0.000398 0
0.000090 0.000241 0
0.000091 0.000106 0
0.000086 0.000012 0
0.000079 -0.000041 0
0.000072 -0.000062 0
0.000067 -0.000060 0
0.000063 -0.000043 0
0.000062 -0.000017 0
0.000062 -0.000003 0
0.000000 -0.000000 0
-0.000022 -0.000271 0
-0.000049 -0.000275 0
-0.000077 -0.000225 0
-0.000102 -0.000141 0
-0.000119 -0.000020 0
-0.000122 0.000136 0
-0.000101 0.000307 0
-0.000054 0.000449 0
0.000013 0.000514 0
0.000080 0.000479 0
0.000130 0.000368 0
0.000154 0.000231 0
0.000158 0.000109 0
0.000150 0.000022 0
0.000138 -0.000030 0
0.000125 -0.000052 0
0.000116 -0.000053 0
0.000109 -0.000039 0
0.000105 -0.000016 0
0.000105 -0.000002 0
0.000000 0.000000 0
-0.000029 -0.000241 0
-0.000066 -0.000243 0
-0.000101 -0.000195 0
-0.000131 -0.000117 0
-0.000151 -0.000009 0
-0.000151 0.000126 0
-0.000123 0.000268 0
-0.000065 0.000383 0
0.000015 0.000436 0
0.000096 0.000411 0
0.000158 0.000324 0
0.000191 0.000213 0
0.000201 0.000110 0
0.000195 0.000032 0
0.000182 -0.000016 0
0.000169 -0.000040 0
0.000157 -0.000044 0
0.000148 -0.000033 0
0.000144 -0.000014 0
0.000144 -0.000002 0
0.000000 -0.000000 0
-0.000034 -0.000205 0
-0.000075 -0.000204 0
-0.000113 -0.000161 0
-0.000144 -0.000092 0
-0.000162 0.000000 0
-0.000158 0.000110 0
-0.000126 0.000222 0
-0.000065 0.000311 0
0.000016 0.000353 0
0.000099 0.000336 0
0.000165 0.000273 0
0.000205 0.000188 0
0.000222 0.000105 0
0.000222 0.000040 0
0.000213 -0.000004 0
0.000201 -0.000027 0
0.000190 -0.000033 0
0.000181 -0.000026 0
0.000177 -0.000011 0
0.000176 -0.000002 0
0.000000 -0.000000 0
-0.000037 -0.000166 0
-0.000080 -0.000163 0
-0.000118 -0.000126 0
-0.000147 -0.000069 0
-0.000161 0.000005 0
-0.000154 0.000090 0
-0.000120 0.000175 0
-0.000060 0.000241 0
0.000016 0.000272 0
0.000095 0.000262 0
0.000161 0.000218 0
0.000206 0.000156 0
0.000229 0.000093 0
0.000236 0.000041 0
0.000232 0.000004 0
0.000224 -0.000016 0
0.000215 -0.000024 0
0.000207 -0.000020 0
0.000203 -0.000009 0
0.000203 -0.000002 0
0.000000 -0.000000 0
-0.000038 -0.000126 0
-0.000082 -0.000122 0
-0.000120 -0.000093 0
-0.000147 -0.000049 0
-0.000158 0.000006 0
-0.000147 0.000068 0
-0.000113 0.000128 0
-0.000056 0.000175 0
0.000015 0.000197 0
0.000089 0.000192 0
0.000153 0.000163 0
0.000201 0.000120 0
0.000230 0.000075 0
0.000243 0.000036 0
0.000245 0.000008 0
0.000240 -0.000009 0
0.000234 -0.000016 0
0.000227 -0.000014 0
0.000223 -0.000006 0
0.000223 -0.000001 0
0.000000 0.000000 0
-0.000040 -0.000084 0
-0.000085 -0.000081 0
-0.000124 -0.000061 0
-0.000149 -0.000032 0
-0.000158 0.000005 0
-0.000145 0.000045 0
-0.000110 0.000083 0
-0.000055 0.000113 0
0.000012 0.000127 0
0.000083 0.000124 0
0.000147 0.000107 0
0.000196 0.000080 0
0.000229 0.000051 0
0.000247 0.000026 0
0.000253 0.000007 0
0.000251 -0.000005 0
0.000246 -0.000010 0
0.000240 -0.000010 0
0.000237 -0.000004 0
0.000236 -0.000001 0
0.000000 0.000000 0
-0.000040 -0.000040 0
-0.000084 -0.000039 0
-0.000121 -0.000029 0
-0.000145 -0.000015 0
-0.000152 0.000002 0
-0.000140 0.000021 0
-0.000107 0.000039 0
-0.000057 0.000052 0
0.000005 0.000059 0
0.000070 0.000058 0
0.000130 0.000050 0
0.000177 0.000038 0
0.000210 0.000024 0
0.000228 0.000012 0
0.000236 0.000003 0
0.000235 -0.000003 0
0.000230 -0.000005 0
0.000225 -0.000005 0
0.000221 -0.000002 0
0.000220 -0.000000 0
0.000000 0.000000 0
-0.000000 0.000000 0
-0.000000 0.000000 0
-0.000000 0.000000 0
-0.000000 0.000000 0
-0.000000 0.000000 0
-0.000000 0.000000 0
-0.000000 0.000000 0
-0.000000 0.000000 0
-0.000000 0.000000 0
0.000000 0.000000 0
0.000000 0.000000 0
0.000000 0.000000 0
0.000000 0.000000 0
0.000000 0.000000 0
0.000000 0.000000 0
0.000000 0.000000 0
0.000000 0.000000 0
0.000000 0.000000 0
0.000000 0.000000 0
0.000000 0.000000 0

CELL_DATA 400 
SCALARS pressure float 1 
LOOKUP_TABLE default 
0.242647
0.242641
0.242607
0.242577
0.242569
0.242583
0.242607
0.242627
0.242635
0.242631
0.242622
0.242612
0.242606
0.242605
0.242607
0.242610
0.242613
0.242614
0.242615
0.242616
0.219619
0.219597
0.219594
0.219605
0.219621
0.219631
0.219630
0.219622
0.219612
0.219605
0.219603
0.219604
0.219608
0.219611
0.219614
0.219615
0.219615
0.219615
0.219616
0.219617
0.196589
0.196604
0.196627
0.196640
0.196637
0.196622
0.196605
0.196595
0.196595
0.196600
0.196608
0.196614
0.196617
0.196617
0.196616
0.196615
0.196615
0.196615
0.196616
0.196616
0.173603
0.173626
0.173635
0.173628
0.173613
0.173599
0.173594
0.173597
0.173605
0.173613
0.173618
0.173619
0.173617
0.173615
0.173614
0.173613
0.173614
0.173615
0.173616
0.173617
0.150620
0.150621
0.150616
0.150609
0.150605
0.150606
0.150610
0.150614
0.150616
0.150616
0.150615
0.150613
0.150613
0.150613
0.150613
0.150614
0.150615
0.150616
0.150617
0.150618
0.127615
0.127608
0.127609
0.127614
0.127620
0.127622
0.127620
0.127616
0.127612
0.127609
0.127609
0.127611
0.127613
0.127614
0.127616
0.127616
0.127617
0.127617
0.127618
0.127618
0.104608
0.104610
0.104618
0.104625
0.104626
0.104621
0.104615
0.104609
0.104607
0.104608
0.104611
0.104614
0.104616
0.104617
0.104617
0.104617
0.104617
0.104618
0.104618
0.104619
0.081613
0.081618
0.081622
0.081622
0.081619
0.081615
0.081612
0.081611
0.081611
0.081613
0.081615
0.081616
0.081617
0.081617
0.081617
0.081617
0.081618
0.081618
0.081619
0.081619
0.058621
0.058619
0.058617
0.058617
0.058617
0.058617
0.058618
0.058617
0.058617
0.058616
0.058616
0.058616
0.058617
0.058617
0.058618
0.058619
0.058619
0.058619
0.058620
0.058620
0.035621
0.035617
0.035616
0.035619
0.035622
0.035623
0.035623
0.035621
0.035618
0.035617
0.035617
0.035617
0.035618
0.035619
0.035620
0.035620
0.035620
0.035621
0.035621
0.035621
0.012620
0.012619
0.012620
0.012623
0.012625
0.012625
0.012623
0.012621
0.012620
0.012619
0.012620
0.012620
0.012621
0.012622
0.012622
0.012622
0.012622
0.012622
0.012622
0.012622
-0.010377
-0.010377
-0.010377
-0.010376
-0.010376
-0.010376
-0.010376
-0.010376
-0.010376
-0.010376
-0.010376
-0.010376
-0.010376
-0.010377
-0.010377
-0.010377
-0.010377
-0.010377
-0.010377
-0.010377
-0.033374
-0.033375
-0.033376
-0.033376
-0.033375
-0.033374
-0.033373
-0.033372
-0.033372
-0.033373
-0.033374
-0.033374
-0.033375
-0.033375
-0.033375
-0.033375
-0.033376
-0.033376
-0.033376
-0.033377
-0.056372
-0.056374
-0.056375
-0.056375
-0.056373
-0.056371
-0.056370
-0.056370
-0.056370
-0.056371
-0.056371
-0.056372
-0.056373
-0.056373
-0.056373
-0.056374
-0.056374
-0.056375
-0.056375
-0.056376
-0.079372
-0.079373
-0.079373
-0.079372
-0.079371
-0.079370
-0.079369
-0.079369
-0.079369
-0.079369
-0.079369
-0.079370
-0.079371
-0.079371
-0.079372
-0.079372
-0.079373
-0.079374
-0.079374
-0.079375
-0.102371
-0.102371
-0.102371
-0.102371
-0.102370
-0.102369
-0.102368
-0.102367
-0.102367
-0.102367
-0.102368
-0.102368
-0.102369
-0.102370
-0.102370
-0.102371
-0.102372
-0.102373
-0.102373
-0.102374
-0.125369
-0.125369
-0.125370
-0.125370
-0.125370
-0.125368
-0.125367
-0.125366
-0.125366
-0.125366
-0.125366
-0.125367
-0.125368
-0.125369
-0.125369
-0.125370
-0.125371
-0.125372
-0.125373
-0.125373
-0.148369
-0.148369
-0.148369
-0.148369
-0.148368
-0.148367
-0.148366
-0.148365
-0.148365
-0.148365
-0.148365
-0.148366
-0.148367
-0.148367
-0.148368
-0.148369
-0.148370
-0.148371
-0.148372
-0.148373
-0.171369
-0.171368
-0.171368
-0.171368
-0.171367
-0.171366
-0.171365
-0.171365
-0.171364
-0.171364
-0.171364
-0.171365
-0.171365
-0.171366
-0.171367
-0.171368
-0.171369
-0.171370
-0.171371
-0.171372
-0.194369
-0.194368
-0.194368
-0.194367
-0.194367
-0.194366
-0.194365
-0.194364
-0.194363
-0.194363
-0.194363
-0.194363
-0.194364
-0.194365
-0.194366
-0.194367
-0.194368
-0.194369
-0.194370
-0.194371

SCALARS temperature float 1 
LOOKUP_TABLE default 
0.000029
0.000226
0.000606
0.001140
0.001784
0.002480
0.003163
0.003767
0.004233
0.004524
0.004629
0.004564
0.004366
0.004080
0.003755
0.003431
0.003143
0.002911
0.002750
0.002669
0.000031
0.000242
0.000649
0.001221
0.001912
0.002662
0.003399
0.004047
0.004544
0.004847
0.004944
0.004856
0.004625
0.004303
0.003943
0.003590
0.003277
0.003028
0.002856
0.002769
0.000035
0.000275
0.000738
0.001392
0.002186
0.003050
0.003900
0.004646
0.005207
0.005532
0.005609
0.005467
0.005161
0.004759
0.004323
0.003904
0.003540
0.003254
0.003058
0.002960
0.000043
0.000328
0.000882
0.001671
0.002636
0.003696
0.004742
0.005655
0.006327
0.006685
0.006716
0.006469
0.006026
0.005479
0.004910
0.004382
0.003934
0.003588
0.003355
0.003238
0.000053
0.000404
0.001092
0.002081
0.003308
0.004672
0.006032
0.007217
0.008064
0.008463
0.008402
0.007966
0.007286
0.006502
0.005726
0.005030
0.004458
0.004025
0.003739
0.003597
0.000067
0.000507
0.001375
0.002644
0.004247
0.006064
0.007905
0.009514
0.010632
0.011078
0.010841
0.010078
0.009014
0.007862
0.006775
0.005843
0.005099
0.004552
0.004195
0.004021
0.000084
0.000633
0.001731
0.003364
0.005477
0.007933
0.010481
0.012733
0.014261
0.014755
0.014208
0.012909
0.011248
0.009555
0.008039
0.006791
0.005829
0.005140
0.004700
0.004487
0.000103
0.000777
0.002139
0.004208
0.006960
0.010259
0.013785
0.016963
0.019090
0.019626
0.018573
0.016459
0.013937
0.011512
0.009444
0.007812
0.006596
0.005748
0.005215
0.004960
0.000123
0.000920
0.002553
0.005084
0.008548
0.012841
0.017584
0.021968
0.024887
0.025455
0.023686
0.020469
0.016850
0.013543
0.010851
0.008803
0.007326
0.006319
0.005696
0.005399
0.000139
0.001039
0.002903
0.005840
0.009957
0.015218
0.021206
0.026879
0.030662
0.031251
0.028677
0.024259
0.019498
0.015325
0.012049
0.009634
0.007933
0.006791
0.006093
0.005763
0.000148
0.001111
0.003115
0.006303
0.010832
0.016731
0.023573
0.030165
0.034571
0.035181
0.032031
0.026759
0.021211
0.016465
0.012817
0.010175
0.008335
0.007112
0.006368
0.006016
0.000150
0.001122
0.003145
0.006361
0.010924
0.016865
0.023761
0.030421
0.034894
0.035523
0.032353
0.027045
0.021465
0.016689
0.013014
0.010348
0.008490
0.007252
0.006497
0.006139
0.000144
0.001074
0.002995
0.006015
0.010234
0.015616
0.021753
0.027609
0.031561
0.032212
0.029592
0.025086
0.020236
0.015982
0.012631
0.010149
0.008391
0.007206
0.006477
0.006129
0.000131
0.000979
0.002709
0.005379
0.009011
0.013498
0.018464
0.023095
0.026232
0.026893
0.025088
0.021771
0.018036
0.014613
0.011805
0.009651
0.008082
0.007003
0.006329
0.006005
0.000115
0.000860
0.002362
0.004626
0.007616
0.011180
0.014988
0.018447
0.020806
0.021459
0.020398
0.018195
0.015548
0.012977
0.010759
0.008982
0.007642
0.006694
0.006093
0.005799
0.000099
0.000743
0.002022
0.003910
0.006332
0.009126
0.012015
0.014581
0.016357
0.016985
0.016452
0.015075
0.013273
0.011406
0.009702
0.008273
0.007154
0.006340
0.005813
0.005552
0.000085
0.000641
0.001734
0.003319
0.005303
0.007533
0.009779
0.011748
0.013138
0.013736
0.013525
0.012678
0.011451
0.010089
0.008777
0.007626
0.006692
0.005995
0.005534
0.005304
0.000075
0.000565
0.001519
0.002884
0.004565
0.006418
0.008255
0.009853
0.011009
0.011579
0.011544
0.011009
0.010137
0.009104
0.008059
0.007107
0.006311
0.005703
0.005295
0.005089
0.000068
0.000514
0.001379
0.002606
0.004099
0.005728
0.007327
0.008717
0.009740
0.010288
0.010344
0.009975
0.009301
0.008460
0.007577
0.006750
0.006043
0.005494
0.005121
0.004932
0.000064
0.000489
0.001309
0.002469
0.003875
0.005400
0.006891
0.008188
0.009151
0.009688
0.009780
0.009482
0.008896
0.008141
0.007333
0.006566
0.005902
0.005383
0.005029
0.004849


SCALARS Species_1 float 1 
LOOKUP_TABLE default 
0.000543
0.001624
0.002690
0.003732
0.004741
0.005708
0.006626
0.007487
0.008284
0.009013
0.009671
0.010254
0.010763
0.011198
0.011562
0.011858
0.012089
0.012259
0.012370
0.012425
0.000542
0.001620
0.002684
0.003724
0.004731
0.005696
0.006612
0.007471
0.008267
0.008995
0.009651
0.010234
0.010742
0.011176
0.011540
0.011836
0.012066
0.012236
0.012347
0.012402
0.000540
0.001614
0.002674
0.003710
0.004713
0.005675
0.006587
0.007444
0.008237
0.008962
0.009616
0.010197
0.010703
0.011136
0.011499
0.011794
0.012024
0.012193
0.012304
0.012359
0.000537
0.001605
0.002659
0.003689
0.004687
0.005643
0.006551
0.007402
0.008192
0.008913
0.009564
0.010141
0.010645
0.011076
0.011436
0.011730
0.011959
0.012127
0.012238
0.012292
0.000533
0.001593
0.002639
0.003661
0.004651
0.005600
0.006500
0.007346
0.008129
0.008845
0.009491
0.010064
0.010564
0.010992
0.011350
0.011641
0.011868
0.012036
0.012145
0.012200
0.000527
0.001577
0.002612
0.003624
0.004603
0.005543
0.006435
0.007271
0.008047
0.008756
0.009395
0.009963
0.010458
0.010881
0.011236
0.011524
0.011749
0.011915
0.012024
0.012078
0.000521
0.001557
0.002578
0.003577
0.004544
0.005472
0.006352
0.007178
0.007944
0.008644
0.009275
0.009835
0.010324
0.010742
0.011092
0.011376
0.011599
0.011763
0.011870
0.011923
0.000512
0.001532
0.002538
0.003521
0.004472
0.005385
0.006252
0.007065
0.007818
0.008507
0.009128
0.009679
0.010160
0.010572
0.010916
0.011196
0.011416
0.011577
0.011683
0.011735
0.000503
0.001503
0.002490
0.003454
0.004388
0.005284
0.006134
0.006931
0.007670
0.008346
0.008956
0.009496
0.009967
0.010371
0.010709
0.010984
0.011200
0.011358
0.011462
0.011514
0.000492
0.001471
0.002436
0.003379
0.004293
0.005169
0.006000
0.006779
0.007502
0.008163
0.008758
0.009286
0.009747
0.010142
0.010473
0.010742
0.010953
0.011108
0.011210
0.011261
0.000480
0.001434
0.002376
0.003296
0.004187
0.005041
0.005852
0.006612
0.007316
0.007960
0.008540
0.009055
0.009504
0.009889
0.010212
0.010475
0.010681
0.010832
0.010932
0.010981
0.000467
0.001396
0.002312
0.003207
0.004074
0.004905
0.005693
0.006432
0.007116
0.007742
0.008306
0.008807
0.009244
0.009618
0.009933
0.010189
0.010389
0.010537
0.010634
0.010683
0.000453
0.001356
0.002245
0.003115
0.003957
0.004763
0.005528
0.006245
0.006910
0.007517
0.008064
0.008550
0.008974
0.009338
0.009644
0.009893
0.010088
0.010232
0.010326
0.010373
0.000440
0.001316
0.002179
0.003023
0.003839
0.004622
0.005363
0.006059
0.006703
0.007292
0.007822
0.008294
0.008706
0.009059
0.009356
0.009598
0.009788
0.009927
0.010019
0.010065
0.000427
0.001277
0.002115
0.002934
0.003726
0.004485
0.005205
0.005879
0.006504
0.007076
0.007591
0.008048
0.008448
0.008792
0.009080
0.009315
0.009500
0.009636
0.009725
0.009769
0.000415
0.001241
0.002056
0.002852
0.003622
0.004360
0.005059
0.005715
0.006322
0.006878
0.007378
0.007824
0.008213
0.008547
0.008828
0.009057
0.009236
0.009369
0.009456
0.009499
0.000405
0.001211
0.002005
0.002781
0.003532
0.004252
0.004934
0.005573
0.006165
0.006707
0.007195
0.007630
0.008010
0.008336
0.008610
0.008834
0.009009
0.009139
0.009224
0.009266
0.000397
0.001186
0.001965
0.002725
0.003461
0.004166
0.004834
0.005460
0.006040
0.006571
0.007050
0.007476
0.007848
0.008168
0.008437
0.008657
0.008829
0.008956
0.009039
0.009081
0.000391
0.001169
0.001936
0.002686
0.003411
0.004106
0.004764
0.005381
0.005953
0.006477
0.006949
0.007369
0.007736
0.008052
0.008317
0.008534
0.008704
0.008829
0.008911
0.008952
0.000388
0.001160
0.001922
0.002666
0.003386
0.004075
0.004729
0.005341
0.005909
0.006428
0.006897
0.007314
0.007679
0.007993
0.008256
0.008471
0.008640
0.008764
0.008846
0.008887


SCALARS Species_2 float 1 
LOOKUP_TABLE default 
0.000256
0.000759
0.001240
0.001686
0.002085
0.002428
0.002710
0.002928
0.003082
0.003175
0.003213
0.003204
0.003158
0.003086
0.002999
0.002907
0.002820
0.002747
0.002694
0.002667
0.000259
0.000770
0.001258
0.001710
0.002115
0.002463
0.002749
0.002971
0.003127
0.003222
0.003261
0.003252
0.003207
0.003134
0.003046
0.002953
0.002865
0.002791
0.002738
0.002710
0.000267
0.000792
0.001294
0.001759
0.002175
0.002534
0.002828
0.003056
0.003217
0.003315
0.003355
0.003347
0.003300
0.003226
0.003136
0.003040
0.002950
0.002875
0.002820
0.002792
0.000278
0.000824
0.001347