# vtk DataFile Version 2.0
generated by CFD-lab course output (written by Tobias Neckel) 
ASCII

DATASET STRUCTURED_GRID
DIMENSIONS  21 21 1 
POINTS 441 float

0.000000 0.000000 0
0.100000 0.000000 0
0.200000 0.000000 0
0.300000 0.000000 0
0.400000 0.000000 0
0.500000 0.000000 0
0.600000 0.000000 0
0.700000 0.000000 0
0.800000 0.000000 0
0.900000 0.000000 0
1.000000 0.000000 0
1.100000 0.000000 0
1.200000 0.000000 0
1.300000 0.000000 0
1.400000 0.000000 0
1.500000 0.000000 0
1.600000 0.000000 0
1.700000 0.000000 0
1.800000 0.000000 0
1.900000 0.000000 0
2.000000 0.000000 0
0.000000 0.100000 0
0.100000 0.100000 0
0.200000 0.100000 0
0.300000 0.100000 0
0.400000 0.100000 0
0.500000 0.100000 0
0.600000 0.100000 0
0.700000 0.100000 0
0.800000 0.100000 0
0.900000 0.100000 0
1.000000 0.100000 0
1.100000 0.100000 0
1.200000 0.100000 0
1.300000 0.100000 0
1.400000 0.100000 0
1.500000 0.100000 0
1.600000 0.100000 0
1.700000 0.100000 0
1.800000 0.100000 0
1.900000 0.100000 0
2.000000 0.100000 0
0.000000 0.200000 0
0.100000 0.200000 0
0.200000 0.200000 0
0.300000 0.200000 0
0.400000 0.200000 0
0.500000 0.200000 0
0.600000 0.200000 0
0.700000 0.200000 0
0.800000 0.200000 0
0.900000 0.200000 0
1.000000 0.200000 0
1.100000 0.200000 0
1.200000 0.200000 0
1.300000 0.200000 0
1.400000 0.200000 0
1.500000 0.200000 0
1.600000 0.200000 0
1.700000 0.200000 0
1.800000 0.200000 0
1.900000 0.200000 0
2.000000 0.200000 0
0.000000 0.300000 0
0.100000 0.300000 0
0.200000 0.300000 0
0.300000 0.300000 0
0.400000 0.300000 0
0.500000 0.300000 0
0.600000 0.300000 0
0.700000 0.300000 0
0.800000 0.300000 0
0.900000 0.300000 0
1.000000 0.300000 0
1.100000 0.300000 0
1.200000 0.300000 0
1.300000 0.300000 0
1.400000 0.300000 0
1.500000 0.300000 0
1.600000 0.300000 0
1.700000 0.300000 0
1.800000 0.300000 0
1.900000 0.300000 0
2.000000 0.300000 0
0.000000 0.400000 0
0.100000 0.400000 0
0.200000 0.400000 0
0.300000 0.400000 0
0.400000 0.400000 0
0.500000 0.400000 0
0.600000 0.400000 0
0.700000 0.400000 0
0.800000 0.400000 0
0.900000 0.400000 0
1.000000 0.400000 0
1.100000 0.400000 0
1.200000 0.400000 0
1.300000 0.400000 0
1.400000 0.400000 0
1.500000 0.400000 0
1.600000 0.400000 0
1.700000 0.400000 0
1.800000 0.400000 0
1.900000 0.400000 0
2.000000 0.400000 0
0.000000 0.500000 0
0.100000 0.500000 0
0.200000 0.500000 0
0.300000 0.500000 0
0.400000 0.500000 0
0.500000 0.500000 0
0.600000 0.500000 0
0.700000 0.500000 0
0.800000 0.500000 0
0.900000 0.500000 0
1.000000 0.500000 0
1.100000 0.500000 0
1.200000 0.500000 0
1.300000 0.500000 0
1.400000 0.500000 0
1.500000 0.500000 0
1.600000 0.500000 0
1.700000 0.500000 0
1.800000 0.500000 0
1.900000 0.500000 0
2.000000 0.500000 0
0.000000 0.600000 0
0.100000 0.600000 0
0.200000 0.600000 0
0.300000 0.600000 0
0.400000 0.600000 0
0.500000 0.600000 0
0.600000 0.600000 0
0.700000 0.600000 0
0.800000 0.600000 0
0.900000 0.600000 0
1.000000 0.600000 0
1.100000 0.600000 0
1.200000 0.600000 0
1.300000 0.600000 0
1.400000 0.600000 0
1.500000 0.600000 0
1.600000 0.600000 0
1.700000 0.600000 0
1.800000 0.600000 0
1.900000 0.600000 0
2.000000 0.600000 0
0.000000 0.700000 0
0.100000 0.700000 0
0.200000 0.700000 0
0.300000 0.700000 0
0.400000 0.700000 0
0.500000 0.700000 0
0.600000 0.700000 0
0.700000 0.700000 0
0.800000 0.700000 0
0.900000 0.700000 0
1.000000 0.700000 0
1.100000 0.700000 0
1.200000 0.700000 0
1.300000 0.700000 0
1.400000 0.700000 0
1.500000 0.700000 0
1.600000 0.700000 0
1.700000 0.700000 0
1.800000 0.700000 0
1.900000 0.700000 0
2.000000 0.700000 0
0.000000 0.800000 0
0.100000 0.800000 0
0.200000 0.800000 0
0.300000 0.800000 0
0.400000 0.800000 0
0.500000 0.800000 0
0.600000 0.800000 0
0.700000 0.800000 0
0.800000 0.800000 0
0.900000 0.800000 0
1.000000 0.800000 0
1.100000 0.800000 0
1.200000 0.800000 0
1.300000 0.800000 0
1.400000 0.800000 0
1.500000 0.800000 0
1.600000 0.800000 0
1.700000 0.800000 0
1.800000 0.800000 0
1.900000 0.800000 0
2.000000 0.800000 0
0.000000 0.900000 0
0.100000 0.900000 0
0.200000 0.900000 0
0.300000 0.900000 0
0.400000 0.900000 0
0.500000 0.900000 0
0.600000 0.900000 0
0.700000 0.900000 0
0.800000 0.900000 0
0.900000 0.900000 0
1.000000 0.900000 0
1.100000 0.900000 0
1.200000 0.900000 0
1.300000 0.900000 0
1.400000 0.900000 0
1.500000 0.900000 0
1.600000 0.900000 0
1.700000 0.900000 0
1.800000 0.900000 0
1.900000 0.900000 0
2.000000 0.900000 0
0.000000 1.000000 0
0.100000 1.000000 0
0.200000 1.000000 0
0.300000 1.000000 0
0.400000 1.000000 0
0.500000 1.000000 0
0.600000 1.000000 0
0.700000 1.000000 0
0.800000 1.000000 0
0.900000 1.000000 0
1.000000 1.000000 0
1.100000 1.000000 0
1.200000 1.000000 0
1.300000 1.000000 0
1.400000 1.000000 0
1.500000 1.000000 0
1.600000 1.000000 0
1.700000 1.000000 0
1.800000 1.000000 0
1.900000 1.000000 0
2.000000 1.000000 0
0.000000 1.100000 0
0.100000 1.100000 0
0.200000 1.100000 0
0.300000 1.100000 0
0.400000 1.100000 0
0.500000 1.100000 0
0.600000 1.100000 0
0.700000 1.100000 0
0.800000 1.100000 0
0.900000 1.100000 0
1.000000 1.100000 0
1.100000 1.100000 0
1.200000 1.100000 0
1.300000 1.100000 0
1.400000 1.100000 0
1.500000 1.100000 0
1.600000 1.100000 0
1.700000 1.100000 0
1.800000 1.100000 0
1.900000 1.100000 0
2.000000 1.100000 0
0.000000 1.200000 0
0.100000 1.200000 0
0.200000 1.200000 0
0.300000 1.200000 0
0.400000 1.200000 0
0.500000 1.200000 0
0.600000 1.200000 0
0.700000 1.200000 0
0.800000 1.200000 0
0.900000 1.200000 0
1.000000 1.200000 0
1.100000 1.200000 0
1.200000 1.200000 0
1.300000 1.200000 0
1.400000 1.200000 0
1.500000 1.200000 0
1.600000 1.200000 0
1.700000 1.200000 0
1.800000 1.200000 0
1.900000 1.200000 0
2.000000 1.200000 0
0.000000 1.300000 0
0.100000 1.300000 0
0.200000 1.300000 0
0.300000 1.300000 0
0.400000 1.300000 0
0.500000 1.300000 0
0.600000 1.300000 0
0.700000 1.300000 0
0.800000 1.300000 0
0.900000 1.300000 0
1.000000 1.300000 0
1.100000 1.300000 0
1.200000 1.300000 0
1.300000 1.300000 0
1.400000 1.300000 0
1.500000 1.300000 0
1.600000 1.300000 0
1.700000 1.300000 0
1.800000 1.300000 0
1.900000 1.300000 0
2.000000 1.300000 0
0.000000 1.400000 0
0.100000 1.400000 0
0.200000 1.400000 0
0.300000 1.400000 0
0.400000 1.400000 0
0.500000 1.400000 0
0.600000 1.400000 0
0.700000 1.400000 0
0.800000 1.400000 0
0.900000 1.400000 0
1.000000 1.400000 0
1.100000 1.400000 0
1.200000 1.400000 0
1.300000 1.400000 0
1.400000 1.400000 0
1.500000 1.400000 0
1.600000 1.400000 0
1.700000 1.400000 0
1.800000 1.400000 0
1.900000 1.400000 0
2.000000 1.400000 0
0.000000 1.500000 0
0.100000 1.500000 0
0.200000 1.500000 0
0.300000 1.500000 0
0.400000 1.500000 0
0.500000 1.500000 0
0.600000 1.500000 0
0.700000 1.500000 0
0.800000 1.500000 0
0.900000 1.500000 0
1.000000 1.500000 0
1.100000 1.500000 0
1.200000 1.500000 0
1.300000 1.500000 0
1.400000 1.500000 0
1.500000 1.500000 0
1.600000 1.500000 0
1.700000 1.500000 0
1.800000 1.500000 0
1.900000 1.500000 0
2.000000 1.500000 0
0.000000 1.600000 0
0.100000 1.600000 0
0.200000 1.600000 0
0.300000 1.600000 0
0.400000 1.600000 0
0.500000 1.600000 0
0.600000 1.600000 0
0.700000 1.600000 0
0.800000 1.600000 0
0.900000 1.600000 0
1.000000 1.600000 0
1.100000 1.600000 0
1.200000 1.600000 0
1.300000 1.600000 0
1.400000 1.600000 0
1.500000 1.600000 0
1.600000 1.600000 0
1.700000 1.600000 0
1.800000 1.600000 0
1.900000 1.600000 0
2.000000 1.600000 0
0.000000 1.700000 0
0.100000 1.700000 0
0.200000 1.700000 0
0.300000 1.700000 0
0.400000 1.700000 0
0.500000 1.700000 0
0.600000 1.700000 0
0.700000 1.700000 0
0.800000 1.700000 0
0.900000 1.700000 0
1.000000 1.700000 0
1.100000 1.700000 0
1.200000 1.700000 0
1.300000 1.700000 0
1.400000 1.700000 0
1.500000 1.700000 0
1.600000 1.700000 0
1.700000 1.700000 0
1.800000 1.700000 0
1.900000 1.700000 0
2.000000 1.700000 0
0.000000 1.800000 0
0.100000 1.800000 0
0.200000 1.800000 0
0.300000 1.800000 0
0.400000 1.800000 0
0.500000 1.800000 0
0.600000 1.800000 0
0.700000 1.800000 0
0.800000 1.800000 0
0.900000 1.800000 0
1.000000 1.800000 0
1.100000 1.800000 0
1.200000 1.800000 0
1.300000 1.800000 0
1.400000 1.800000 0
1.500000 1.800000 0
1.600000 1.800000 0
1.700000 1.800000 0
1.800000 1.800000 0
1.900000 1.800000 0
2.000000 1.800000 0
0.000000 1.900000 0
0.100000 1.900000 0
0.200000 1.900000 0
0.300000 1.900000 0
0.400000 1.900000 0
0.500000 1.900000 0
0.600000 1.900000 0
0.700000 1.900000 0
0.800000 1.900000 0
0.900000 1.900000 0
1.000000 1.900000 0
1.100000 1.900000 0
1.200000 1.900000 0
1.300000 1.900000 0
1.400000 1.900000 0
1.500000 1.900000 0
1.600000 1.900000 0
1.700000 1.900000 0
1.800000 1.900000 0
1.900000 1.900000 0
2.000000 1.900000 0
0.000000 2.000000 0
0.100000 2.000000 0
0.200000 2.000000 0
0.300000 2.000000 0
0.400000 2.000000 0
0.500000 2.000000 0
0.600000 2.000000 0
0.700000 2.000000 0
0.800000 2.000000 0
0.900000 2.000000 0
1.000000 2.000000 0
1.100000 2.000000 0
1.200000 2.000000 0
1.300000 2.000000 0
1.400000 2.000000 0
1.500000 2.000000 0
1.600000 2.000000 0
1.700000 2.000000 0
1.800000 2.000000 0
1.900000 2.000000 0
2.000000 2.000000 0
POINT_DATA 441 

VECTORS velocity float
0.000000 0.000000 0
-0.000005 0.000000 0
0.000006 0.000000 0
0.000009 0.000000 0
0.000005 0.000000 0
-0.000000 0.000000 0
-0.000005 0.000000 0
-0.000006 0.000000 0
-0.000004 0.000000 0
-0.000001 0.000000 0
0.000001 0.000000 0
0.000002 0.000000 0
0.000002 0.000000 0
0.000001 0.000000 0
-0.000000 0.000000 0
-0.000000 0.000000 0
-0.000001 0.000000 0
-0.000000 0.000000 0
-0.000000 0.000000 0
-0.000000 0.000000 0
-0.000000 0.000000 0
0.000000 0.000001 0
0.000002 0.000000 0
0.000012 0.000011 0
0.000016 0.000009 0
0.000015 -0.000001 0
0.000011 -0.000009 0
0.000006 -0.000011 0
0.000001 -0.000006 0
-0.000004 0.000003 0
-0.000010 0.000009 0
-0.000017 0.000013 0
-0.000025 0.000012 0
-0.000031 0.000009 0
-0.000036 0.000005 0
-0.000040 0.000002 0
-0.000042 0.000000 0
-0.000042 -0.000001 0
-0.000042 -0.000001 0
-0.000042 -0.000001 0
-0.000041 -0.000000 0
-0.000041 -0.000000 0
0.000000 0.000008 0
0.000009 -0.000000 0
0.000010 -0.000006 0
0.000010 -0.000012 0
0.000011 -0.000012 0
0.000013 -0.000005 0
0.000013 0.000005 0
0.000009 0.000015 0
0.000001 0.000021 0
-0.000009 0.000022 0
-0.000019 0.000019 0
-0.000029 0.000015 0
-0.000036 0.000010 0
-0.000041 0.000006 0
-0.000043 0.000003 0
-0.000044 0.000001 0
-0.000044 0.000000 0
-0.000044 -0.000000 0
-0.000044 -0.000001 0
-0.000043 -0.000001 0
-0.000043 -0.000001 0
0.000000 -0.000001 0
0.000005 -0.000015 0
0.000006 -0.000018 0
0.000011 -0.000012 0
0.000018 -0.000002 0
0.000021 0.000009 0
0.000020 0.000018 0
0.000013 0.000023 0
0.000002 0.000026 0
-0.000010 0.000025 0
-0.000022 0.000023 0
-0.000032 0.000020 0
-0.000039 0.000015 0
-0.000043 0.000011 0
-0.000045 0.000007 0
-0.000046 0.000003 0
-0.000045 0.000001 0
-0.000044 -0.000001 0
-0.000043 -0.000001 0
-0.000043 -0.000001 0
-0.000043 -0.000001 0
0.000000 -0.000005 0
0.000003 -0.000023 0
0.000011 -0.000017 0
0.000019 -0.000008 0
0.000025 0.000002 0
0.000027 0.000009 0
0.000024 0.000017 0
0.000016 0.000024 0
0.000004 0.000031 0
-0.000010 0.000035 0
-0.000024 0.000035 0
-0.000035 0.000031 0
-0.000043 0.000024 0
-0.000047 0.000016 0
-0.000048 0.000008 0
-0.000048 0.000003 0
-0.000046 -0.000001 0
-0.000044 -0.000002 0
-0.000043 -0.000002 0
-0.000042 -0.000002 0
-0.000042 -0.000001 0
0.000000 -0.000000 0
0.000008 -0.000026 0
0.000017 -0.000021 0
0.000024 -0.000015 0
0.000029 -0.000007 0
0.000032 0.000003 0
0.000030 0.000017 0
0.000023 0.000033 0
0.000010 0.000047 0
-0.000008 0.000054 0
-0.000025 0.000052 0
-0.000039 0.000043 0
-0.000048 0.000031 0
-0.000052 0.000018 0
-0.000052 0.000007 0
-0.000050 0.000000 0
-0.000047 -0.000003 0
-0.000044 -0.000005 0
-0.000041 -0.000004 0
-0.000040 -0.000002 0
-0.000040 -0.000001 0
0.000000 0.000002 0
0.000011 -0.000033 0
0.000018 -0.000032 0
0.000026 -0.000027 0
0.000033 -0.000016 0
0.000038 0.000002 0
0.000039 0.000025 0
0.000032 0.000048 0
0.000016 0.000067 0
-0.000006 0.000074 0
-0.000028 0.000069 0
-0.000044 0.000055 0
-0.000054 0.000036 0
-0.000056 0.000018 0
-0.000054 0.000005 0
-0.000050 -0.000003 0
-0.000045 -0.000007 0
-0.000041 -0.000007 0
-0.000039 -0.000006 0
-0.000037 -0.000003 0
-0.000037 -0.000002 0
0.000000 -0.000001 0
0.000010 -0.000045 0
0.000018 -0.000044 0
0.000028 -0.000036 0
0.000037 -0.000020 0
0.000045 0.000003 0
0.000046 0.000031 0
0.000039 0.000062 0
0.000021 0.000086 0
-0.000005 0.000096 0
-0.000030 0.000089 0
-0.000049 0.000067 0
-0.000057 0.000041 0
-0.000058 0.000018 0
-0.000054 0.000001 0
-0.000048 -0.000008 0
-0.000042 -0.000012 0
-0.000037 -0.000011 0
-0.000034 -0.000008 0
-0.000032 -0.000004 0
-0.000032 -0.000002 0
0.000000 -0.000002 0
0.000009 -0.000056 0
0.000018 -0.000053 0
0.000028 -0.000044 0
0.000037 -0.000027 0
0.000045 -0.000002 0
0.000048 0.000033 0
0.000041 0.000073 0
0.000023 0.000107 0
-0.000004 0.000122 0
-0.000030 0.000111 0
-0.000048 0.000081 0
-0.000056 0.000045 0
-0.000054 0.000015 0
-0.000049 -0.000004 0
-0.000042 -0.000014 0
-0.000036 -0.000017 0
-0.000031 -0.000015 0
-0.000027 -0.000011 0
-0.000026 -0.000005 0
-0.000025 -0.000002 0
0.000000 -0.000000 0
0.000007 -0.000063 0
0.000015 -0.000061 0
0.000023 -0.000053 0
0.000030 -0.000037 0
0.000037 -0.000009 0
0.000040 0.000033 0
0.000036 0.000085 0
0.000021 0.000129 0
-0.000002 0.000149 0
-0.000025 0.000134 0
-0.000040 0.000094 0
-0.000045 0.000048 0
-0.000043 0.000011 0
-0.000037 -0.000011 0
-0.000031 -0.000021 0
-0.000025 -0.000023 0
-0.000021 -0.000020 0
-0.000018 -0.000013 0
-0.000017 -0.000006 0
-0.000017 -0.000002 0
0.000000 0.000000 0
0.000005 -0.000068 0
0.000009 -0.000069 0
0.000012 -0.000061 0
0.000017 -0.000045 0
0.000021 -0.000014 0
0.000024 0.000034 0
0.000022 0.000094 0
0.000013 0.000146 0
0.000000 0.000169 0
-0.000013 0.000150 0
-0.000022 0.000102 0
-0.000024 0.000048 0
-0.000023 0.000007 0
-0.000019 -0.000017 0
-0.000015 -0.000026 0
-0.000012 -0.000027 0
-0.000009 -0.000022 0
-0.000008 -0.000015 0
-0.000007 -0.000007 0
-0.000007 -0.000002 0
0.000000 -0.000000 0
0.000001 -0.000070 0
0.000000 -0.000072 0
-0.000000 -0.000064 0
-0.000001 -0.000047 0
-0.000001 -0.000015 0
-0.000000 0.000035 0
0.000000 0.000097 0
0.000001 0.000152 0
0.000002 0.000175 0
0.000003 0.000155 0
0.000003 0.000104 0
0.000003 0.000048 0
0.000004 0.000006 0
0.000004 -0.000019 0
0.000004 -0.000028 0
0.000004 -0.000029 0
0.000004 -0.000024 0
0.000004 -0.000016 0
0.000004 -0.000007 0
0.000004 -0.000002 0
0.000000 -0.000001 0
-0.000004 -0.000069 0
-0.000008 -0.000069 0
-0.000013 -0.000061 0
-0.000018 -0.000044 0
-0.000022 -0.000013 0
-0.000024 0.000034 0
-0.000021 0.000093 0
-0.000011 0.000144 0
0.000004 0.000166 0
0.000018 0.000148 0
0.000028 0.000101 0
0.000031 0.000048 0
0.000030 0.000007 0
0.000026 -0.000017 0
0.000023 -0.000027 0
0.000020 -0.000027 0
0.000017 -0.000023 0
0.000016 -0.000015 0
0.000015 -0.000007 0
0.000015 -0.000002 0
0.000000 -0.000000 0
-0.000007 -0.000062 0
-0.000014 -0.000062 0
-0.000022 -0.000054 0
-0.000031 -0.000037 0
-0.000038 -0.000009 0
-0.000041 0.000033 0
-0.000035 0.000083 0
-0.000019 0.000127 0
0.000005 0.000146 0
0.000029 0.000131 0
0.000045 0.000092 0
0.000051 0.000047 0
0.000050 0.000011 0
0.000044 -0.000012 0
0.000038 -0.000022 0
0.000033 -0.000023 0
0.000029 -0.000020 0
0.000027 -0.000014 0
0.000026 -0.000006 0
0.000025 -0.000002 0
0.000000 0.000000 0
-0.000008 -0.000054 0
-0.000018 -0.000053 0
-0.000028 -0.000045 0
-0.000038 -0.000029 0
-0.000045 -0.000004 0
-0.000047 0.000031 0
-0.000039 0.000071 0
-0.000020 0.000105 0
0.000007 0.000119 0
0.000034 0.000108 0
0.000053 0.000079 0
0.000061 0.000043 0
0.000061 0.000014 0
0.000056 -0.000006 0
0.000050 -0.000016 0
0.000044 -0.000018 0
0.000039 -0.000016 0
0.000036 -0.000011 0
0.000034 -0.000005 0
0.000034 -0.000002 0
0.000000 -0.000000 0
-0.000009 -0.000044 0
-0.000020 -0.000043 0
-0.000030 -0.000035 0
-0.000039 -0.000021 0
-0.000045 -0.000000 0
-0.000045 0.000027 0
-0.000036 0.000057 0
-0.000018 0.000082 0
0.000008 0.000092 0
0.000034 0.000085 0
0.000053 0.000064 0
0.000063 0.000038 0
0.000064 0.000015 0
0.000061 -0.000001 0
0.000056 -0.000010 0
0.000051 -0.000013 0
0.000046 -0.000012 0
0.000043 -0.000009 0
0.000041 -0.000004 0
0.000041 -0.000002 0
0.000000 -0.000000 0
-0.000010 -0.000034 0
-0.000019 -0.000032 0
-0.000029 -0.000025 0
-0.000036 -0.000014 0
-0.000041 0.000002 0
-0.000039 0.000023 0
-0.000030 0.000044 0
-0.000014 0.000061 0
0.000009 0.000068 0
0.000031 0.000063 0
0.000049 0.000050 0
0.000060 0.000032 0
0.000063 0.000015 0
0.000062 0.000002 0
0.000059 -0.000005 0
0.000055 -0.000008 0
0.000051 -0.000008 0
0.000048 -0.000006 0
0.000047 -0.000003 0
0.000046 -0.000001 0
0.000000 -0.000000 0
-0.000009 -0.000025 0
-0.000018 -0.000023 0
-0.000026 -0.000018 0
-0.000032 -0.000009 0
-0.000035 0.000003 0
-0.000033 0.000017 0
-0.000024 0.000031 0
-0.000009 0.000042 0
0.000010 0.000047 0
0.000029 0.000045 0
0.000045 0.000036 0
0.000055 0.000024 0
0.000061 0.000013 0
0.000061 0.000004 0
0.000060 -0.000002 0
0.000057 -0.000005 0
0.000054 -0.000006 0
0.000052 -0.000004 0
0.000051 -0.000002 0
0.000050 -0.000001 0
0.000000 0.000000 0
-0.000009 -0.000016 0
-0.000017 -0.000015 0
-0.000024 -0.000011 0
-0.000029 -0.000005 0
-0.000031 0.000002 0
-0.000028 0.000011 0
-0.000020 0.000020 0
-0.000006 0.000027 0
0.000010 0.000030 0
0.000027 0.000028 0
0.000042 0.000023 0
0.000052 0.000016 0
0.000058 0.000009 0
0.000060 0.000003 0
0.000060 -0.000001 0
0.000058 -0.000003 0
0.000056 -0.000003 0
0.000054 -0.000003 0
0.000053 -0.000001 0
0.000053 -0.000001 0
0.000000 0.000000 0
-0.000008 -0.000008 0
-0.000016 -0.000007 0
-0.000023 -0.000005 0
-0.000027 -0.000003 0
-0.000028 0.000001 0
-0.000025 0.000005 0
-0.000017 0.000010 0
-0.000005 0.000013 0
0.000010 0.000014 0
0.000025 0.000013 0
0.000038 0.000011 0
0.000048 0.000008 0
0.000054 0.000004 0
0.000057 0.000002 0
0.000057 -0.000000 0
0.000056 -0.000001 0
0.000055 -0.000002 0
0.000053 -0.000001 0
0.000052 -0.000001 0
0.000052 -0.000000 0
0.000000 0.000000 0
-0.000000 0.000000 0
-0.000000 0.000000 0
-0.000000 0.000000 0
0.000000 0.000000 0
-0.000000 0.000000 0
-0.000000 0.000000 0
-0.000000 0.000000 0
-0.000000 0.000000 0
-0.000000 0.000000 0
0.000000 0.000000 0
0.000000 0.000000 0
0.000000 0.000000 0
0.000000 0.000000 0
0.000000 0.000000 0
0.000000 0.000000 0
0.000000 0.000000 0
0.000000 0.000000 0
0.000000 0.000000 0
0.000000 0.000000 0
0.000000 0.000000 0

CELL_DATA 400 
SCALARS pressure float 1 
LOOKUP_TABLE default 
0.242637
0.242655
0.242633
0.242598
0.242576
0.242578
0.242597
0.242620
0.242635
0.242638
0.242633
0.242624
0.242617
0.242614
0.242615
0.242617
0.242619
0.242620
0.242621
0.242622
0.219632
0.219607
0.219596
0.219602
0.219617
0.219631
0.219636
0.219632
0.219623
0.219616
0.219612
0.219612
0.219614
0.219617
0.219619
0.219621
0.219621
0.219621
0.219622
0.219622
0.196598
0.196600
0.196621
0.196640
0.196645
0.196636
0.196620
0.196607
0.196602
0.196605
0.196611
0.196617
0.196621
0.196622
0.196622
0.196621
0.196621
0.196621
0.196621
0.196622
0.173602
0.173622
0.173637
0.173638
0.173626
0.173612
0.173603
0.173602
0.173607
0.173615
0.173620
0.173623
0.173623
0.173621
0.173620
0.173620
0.173620
0.173620
0.173621
0.173622
0.150621
0.150624
0.150622
0.150616
0.150612
0.150611
0.150613
0.150616
0.150619
0.150620
0.150620
0.150619
0.150619
0.150618
0.150619
0.150619
0.150620
0.150621
0.150621
0.150622
0.127621
0.127612
0.127611
0.127615
0.127621
0.127625
0.127625
0.127621
0.127617
0.127615
0.127615
0.127615
0.127617
0.127619
0.127620
0.127620
0.127621
0.127621
0.127622
0.127622
0.104614
0.104611
0.104617
0.104624
0.104628
0.104627
0.104622
0.104616
0.104613
0.104612
0.104614
0.104617
0.104619
0.104620
0.104621
0.104621
0.104621
0.104621
0.104622
0.104622
0.081616
0.081618
0.081622
0.081624
0.081623
0.081621
0.081617
0.081615
0.081615
0.081616
0.081617
0.081619
0.081620
0.081620
0.081621
0.081621
0.081621
0.081621
0.081622
0.081622
0.058623
0.058621
0.058619
0.058619
0.058619
0.058620
0.058620
0.058620
0.058619
0.058619
0.058619
0.058619
0.058619
0.058620
0.058621
0.058621
0.058621
0.058622
0.058622
0.058622
0.035624
0.035619
0.035617
0.035618
0.035621
0.035623
0.035624
0.035623
0.035621
0.035620
0.035619
0.035619
0.035620
0.035621
0.035621
0.035622
0.035622
0.035622
0.035622
0.035622
0.012623
0.012620
0.012620
0.012622
0.012624
0.012625
0.012625
0.012624
0.012622
0.012621
0.012621
0.012621
0.012622
0.012622
0.012622
0.012623
0.012623
0.012623
0.012623
0.012623
-0.010376
-0.010377
-0.010377
-0.010377
-0.010376
-0.010375
-0.010375
-0.010375
-0.010376
-0.010376
-0.010376
-0.010377
-0.010377
-0.010377
-0.010377
-0.010377
-0.010377
-0.010377
-0.010377
-0.010377
-0.033374
-0.033375
-0.033376
-0.033377
-0.033377
-0.033375
-0.033374
-0.033373
-0.033373
-0.033373
-0.033374
-0.033375
-0.033375
-0.033376
-0.033376
-0.033376
-0.033376
-0.033377
-0.033377
-0.033377
-0.056373
-0.056374
-0.056376
-0.056376
-0.056375
-0.056374
-0.056372
-0.056371
-0.056371
-0.056372
-0.056373
-0.056374
-0.056374
-0.056375
-0.056375
-0.056376
-0.056376
-0.056376
-0.056377
-0.056377
-0.079373
-0.079374
-0.079375
-0.079375
-0.079374
-0.079373
-0.079372
-0.079371
-0.079371
-0.079371
-0.079372
-0.079373
-0.079373
-0.079374
-0.079375
-0.079375
-0.079376
-0.079376
-0.079377
-0.079377
-0.102373
-0.102373
-0.102373
-0.102373
-0.102373
-0.102373
-0.102372
-0.102371
-0.102371
-0.102371
-0.102371
-0.102372
-0.102373
-0.102373
-0.102374
-0.102375
-0.102375
-0.102376
-0.102376
-0.102377
-0.125372
-0.125372
-0.125372
-0.125373
-0.125373
-0.125372
-0.125372
-0.125371
-0.125370
-0.125370
-0.125371
-0.125371
-0.125372
-0.125373
-0.125374
-0.125374
-0.125375
-0.125376
-0.125376
-0.125377
-0.148372
-0.148372
-0.148372
-0.148373
-0.148372
-0.148372
-0.148371
-0.148370
-0.148370
-0.148370
-0.148371
-0.148371
-0.148372
-0.148373
-0.148374
-0.148374
-0.148375
-0.148376
-0.148376
-0.148377
-0.171372
-0.171372
-0.171372
-0.171372
-0.171372
-0.171371
-0.171371
-0.171370
-0.171370
-0.171370
-0.171371
-0.171371
-0.171372
-0.171373
-0.171373
-0.171374
-0.171375
-0.171375
-0.171376
-0.171377
-0.194372
-0.194372
-0.194371
-0.194371
-0.194371
-0.194371
-0.194371
-0.194370
-0.194370
-0.194370
-0.194370
-0.194371
-0.194372
-0.194372
-0.194373
-0.194374
-0.194375
-0.194375
-0.194376
-0.194377

SCALARS temperature float 1 
LOOKUP_TABLE default 
0.000004
0.000035
0.000096
0.000187
0.000302
0.000430
0.000556
0.000661
0.000726
0.000742
0.000708
0.000632
0.000531
0.000423
0.000321
0.000236
0.000170
0.000124
0.000095
0.000082
0.000005
0.000042
0.000117
0.000228
0.000369
0.000528
0.000684
0.000814
0.000895
0.000913
0.000868
0.000772
0.000646
0.000511
0.000386
0.000281
0.000202
0.000146
0.000112
0.000096
0.000007
0.000058
0.000163
0.000319
0.000520
0.000749
0.000975
0.001165
0.001282
0.001305
0.001234
0.001089
0.000901
0.000705
0.000526
0.000379
0.000269
0.000193
0.000147
0.000125
0.000010
0.000087
0.000243
0.000481
0.000792
0.001150
0.001512
0.001815
0.002001
0.002032
0.001908
0.001665
0.001359
0.001047
0.000768
0.000545
0.000381
0.000270
0.000203
0.000172
0.000015
0.000132
0.000372
0.000743
0.001237
0.001819
0.002417
0.002925
0.003235
0.003276
0.003050
0.002625
0.002107
0.001592
0.001147
0.000798
0.000549
0.000383
0.000286
0.000241
0.000023
0.000197
0.000561
0.001133
0.001913
0.002858
0.003851
0.004711
0.005236
0.005289
0.004873
0.004126
0.003245
0.002400
0.001692
0.001155
0.000779
0.000536
0.000395
0.000331
0.000032
0.000283
0.000814
0.001667
0.002862
0.004353
0.005972
0.007409
0.008290
0.008353
0.007605
0.006318
0.004855
0.003505
0.002414
0.001613
0.001069
0.000725
0.000528
0.000439
0.000044
0.000386
0.001120
0.002325
0.004066
0.006314
0.008844
0.011161
0.012602
0.012668
0.011380
0.009252
0.006930
0.004875
0.003278
0.002146
0.001397
0.000934
0.000673
0.000557
0.000056
0.000493
0.001441
0.003033
0.005400
0.008564
0.012263
0.015769
0.017988
0.018050
0.015990
0.012711
0.009277
0.006363
0.004184
0.002688
0.001724
0.001139
0.000814
0.000670
0.000066
0.000583
0.001717
0.003652
0.006596
0.010652
0.015553
0.020342
0.023428
0.023479
0.020550
0.016020
0.011438
0.007684
0.004964
0.003144
0.001994
0.001307
0.000929
0.000762
0.000072
0.000635
0.001879
0.004018
0.007314
0.011930
0.017614
0.023271
0.026955
0.027002
0.023473
0.018096
0.012761
0.008477
0.005427
0.003413
0.002154
0.001406
0.000997
0.000817
0.000073
0.000637
0.001881
0.004019
0.007306
0.011901
0.017549
0.023162
0.026820
0.026874
0.023384
0.018054
0.012755
0.008488
0.005445
0.003430
0.002168
0.001418
0.001007
0.000826
0.000067
0.000587
0.001727
0.003662
0.006591
0.010603
0.015426
0.020125
0.023156
0.023227
0.020381
0.015953
0.011447
0.007732
0.005024
0.003199
0.002040
0.001343
0.000959
0.000789
0.000058
0.000503
0.001466
0.003070
0.005435
0.008571
0.012210
0.015645
0.017824
0.017909
0.015926
0.012736
0.009368
0.006481
0.004300
0.002787
0.001803
0.001201
0.000864
0.000715
0.000046
0.000404
0.001166
0.002406
0.004178
0.006441
0.008965
0.011265
0.012699
0.012788
0.011544
0.009457
0.007155
0.005090
0.003464
0.002295
0.001512
0.001022
0.000744
0.000619
0.000036
0.000310
0.000886
0.001801
0.003067
0.004626
0.006301
0.007779
0.008691
0.008774
0.008034
0.006736
0.005238
0.003832
0.002678
0.001816
0.001221
0.000839
0.000618
0.000517
0.000027
0.000233
0.000659
0.001322
0.002213
0.003276
0.004382
0.005333
0.005917
0.005990
0.005554
0.004751
0.003785
0.002841
0.002035
0.001411
0.000968
0.000676
0.000504
0.000425
0.000020
0.000177
0.000497
0.000985
0.001626
0.002372
0.003129
0.003769
0.004162
0.004225
0.003958
0.003440
0.002795
0.002143
0.001567
0.001109
0.000774
0.000549
0.000414
0.000352
0.000016
0.000141
0.000395
0.000777
0.001271
0.001835
0.002399
0.002870
0.003161
0.003216
0.003034
0.002667
0.002198
0.001712
0.001272
0.000913
0.000646
0.000464
0.000353
0.000301
0.000014
0.000125
0.000347
0.000680
0.001106
0.001589
0.002067
0.002465
0.002712
0.002763
0.002616
0.002314
0.001921
0.001508
0.001130
0.000818
0.000583
0.000421
0.000322
0.000276


SCALARS Species_1 float 1 
LOOKUP_TABLE default 
0.000511
0.001548
0.002623
0.003748
0.004926
0.006143
0.007368
0.008559
0.009668
0.010641
0.011433
0.012012
0.012363
0.012497
0.012445
0.012257
0.011995
0.011725
0.011508
0.011387
0.000523
0.001584
0.002682
0.003831
0.005034
0.006274
0.007522
0.008736
0.009864
0.010855
0.011661
0.012250
0.012608
0.012746
0.012694
0.012505
0.012240
0.011968
0.011748
0.011626
0.000544
0.001646
0.002786
0.003979
0.005225
0.006509
0.007801
0.009057
0.010223
0.011247
0.012079
0.012688
0.013058
0.013201
0.013148
0.012954
0.012682
0.012402
0.012175
0.012050
0.000570
0.001726
0.002920
0.004169
0.005472
0.006815
0.008164
0.009474
0.010691
0.011758
0.012626
0.013260
0.013646
0.013794
0.013740
0.013537
0.013255
0.012964
0.012729
0.012599
0.000599
0.001812
0.003066
0.004375
0.005740
0.007146
0.008557
0.009927
0.011198
0.012313
0.013218
0.013880
0.014282
0.014437
0.014381
0.014170
0.013875
0.013572
0.013328
0.013192
0.000626
0.001892
0.003201
0.004566
0.005989
0.007452
0.008921
0.010346
0.011668
0.012826
0.013767
0.014453
0.014871
0.015032
0.014973
0.014755
0.014450
0.014136
0.013882
0.013742
0.000646
0.001954
0.003304
0.004712
0.006179
0.007686
0.009199
0.010665
0.012025
0.013216
0.014183
0.014889
0.015318
0.015484
0.015424
0.015200
0.014887
0.014565
0.014305
0.014161
0.000657
0.001987
0.003359
0.004789
0.006278
0.007808
0.009342
0.010828
0.012206
0.013413
0.014393
0.015108
0.015544
0.015712
0.015652
0.015426
0.015110
0.014785
0.014523
0.014378
0.000656
0.001983
0.003352
0.004779
0.006263
0.007787
0.009315
0.010796
0.012168
0.013369
0.014345
0.015058
0.015492
0.015660
0.015601
0.015378
0.015065
0.014743
0.014483
0.014339
0.000642
0.001940
0.003278
0.004672
0.006123
0.007612
0.009104
0.010550
0.011889
0.013062
0.014015
0.014711
0.015135
0.015301
0.015246
0.015029
0.014726
0.014413
0.014161
0.014021
0.000614
0.001857
0.003138
0.004472
0.005860
0.007284
0.008711
0.010094
0.011375
0.012496
0.013407
0.014074
0.014481
0.014641
0.014590
0.014386
0.014098
0.013800
0.013560
0.013427
0.000575
0.001739
0.002939
0.004189
0.005488
0.006822
0.008158
0.009453
0.010652
0.011702
0.012556
0.013181
0.013564
0.013716
0.013671
0.013482
0.013215
0.012938
0.012715
0.012591
0.000528
0.001595
0.002696
0.003842
0.005034
0.006257
0.007483
0.008670
0.009770
0.010734
0.011518
0.012092
0.012445
0.012587
0.012548
0.012378
0.012135
0.011884
0.011680
0.011567
0.000475
0.001435
0.002425
0.003456
0.004528
0.005629
0.006731
0.007800
0.008790
0.009658
0.010365
0.010884
0.011204
0.011334
0.011302
0.011151
0.010935
0.010711
0.010529
0.010428
0.000420
0.001269
0.002146
0.003058
0.004007
0.004982
0.005958
0.006905
0.007782
0.008552
0.009180
0.009641
0.009927
0.010046
0.010020
0.009889
0.009700
0.009503
0.009343
0.009255
0.000367
0.001111
0.001878
0.002677
0.003508
0.004361
0.005217
0.006047
0.006817
0.007493
0.008045
0.008451
0.008705
0.008811
0.008791
0.008679
0.008515
0.008344
0.008205
0.008128
0.000321
0.000969
0.001639
0.002337
0.003064
0.003810
0.004558
0.005284
0.005959
0.006551
0.007036
0.007394
0.007618
0.007713
0.007699
0.007603
0.007462
0.007314
0.007193
0.007126
0.000283
0.000855
0.001446
0.002063
0.002704
0.003363
0.004025
0.004667
0.005264
0.005789
0.006219
0.006538
0.006738
0.006825
0.006814
0.006731
0.006608
0.006478
0.006372
0.006313
0.000256
0.000775
0.001310
0.001870
0.002452
0.003050
0.003651
0.004234
0.004777
0.005254
0.005646
0.005937
0.006121
0.006201
0.006193
0.006119
0.006008
0.005891
0.005796
0.005742
0.000242
0.000733
0.001241
0.001770
0.002322
0.002889
0.003458
0.004011
0.004526
0.004979
0.005351
0.005628
0.005803
0.005880
0.005873
0.005804
0.005699
0.005589
0.005499
0.005448


SCALARS Species_2 float 1 
LOOKUP_TABLE default 
0.000281
0.000828
0.001328
0.001757
0.002093
0.002325
0.002448
0.002469
0.002397
0.002249
0.002047
0.001809
0.001557
0.001307
0.001075
0.000870
0.000700
0.000570
0.000482
0.000438
0.000307
0.000903
0.001449
0.001916
0.002282
0.002534
0.002669
0.002691
0.002613
0.002452
0.002232
0.001973
0.001698
0.001427
0.001174
0.000950
0.000765
0.000623
0.000528
0.000480
0.000356
0.001049
0.001683
0.002225
0.002650
0.002942
0.003098
0.003123
0.003031
0.002845
0.002589
0.002289
0.001970
0.001655
0.001362
0.001103
0.000889
0.000724
0.000613
0.000558