# vtk DataFile Version 2.0
generated by CFD-lab course output (written by Tobias Neckel) 
ASCII

DATASET STRUCTURED_GRID
DIMENSIONS  21 21 1 
POINTS 441 float

0.000000 0.000000 0
0.100000 0.000000 0
0.200000 0.000000 0
0.300000 0.000000 0
0.400000 0.000000 0
0.500000 0.000000 0
0.600000 0.000000 0
0.700000 0.000000 0
0.800000 0.000000 0
0.900000 0.000000 0
1.000000 0.000000 0
1.100000 0.000000 0
1.200000 0.000000 0
1.300000 0.000000 0
1.400000 0.000000 0
1.500000 0.000000 0
1.600000 0.000000 0
1.700000 0.000000 0
1.800000 0.000000 0
1.900000 0.000000 0
2.000000 0.000000 0
0.000000 0.100000 0
0.100000 0.100000 0
0.200000 0.100000 0
0.300000 0.100000 0
0.400000 0.100000 0
0.500000 0.100000 0
0.600000 0.100000 0
0.700000 0.100000 0
0.800000 0.100000 0
0.900000 0.100000 0
1.000000 0.100000 0
1.100000 0.100000 0
1.200000 0.100000 0
1.300000 0.100000 0
1.400000 0.100000 0
1.500000 0.100000 0
1.600000 0.100000 0
1.700000 0.100000 0
1.800000 0.100000 0
1.900000 0.100000 0
2.000000 0.100000 0
0.000000 0.200000 0
0.100000 0.200000 0
0.200000 0.200000 0
0.300000 0.200000 0
0.400000 0.200000 0
0.500000 0.200000 0
0.600000 0.200000 0
0.700000 0.200000 0
0.800000 0.200000 0
0.900000 0.200000 0
1.000000 0.200000 0
1.100000 0.200000 0
1.200000 0.200000 0
1.300000 0.200000 0
1.400000 0.200000 0
1.500000 0.200000 0
1.600000 0.200000 0
1.700000 0.200000 0
1.800000 0.200000 0
1.900000 0.200000 0
2.000000 0.200000 0
0.000000 0.300000 0
0.100000 0.300000 0
0.200000 0.300000 0
0.300000 0.300000 0
0.400000 0.300000 0
0.500000 0.300000 0
0.600000 0.300000 0
0.700000 0.300000 0
0.800000 0.300000 0
0.900000 0.300000 0
1.000000 0.300000 0
1.100000 0.300000 0
1.200000 0.300000 0
1.300000 0.300000 0
1.400000 0.300000 0
1.500000 0.300000 0
1.600000 0.300000 0
1.700000 0.300000 0
1.800000 0.300000 0
1.900000 0.300000 0
2.000000 0.300000 0
0.000000 0.400000 0
0.100000 0.400000 0
0.200000 0.400000 0
0.300000 0.400000 0
0.400000 0.400000 0
0.500000 0.400000 0
0.600000 0.400000 0
0.700000 0.400000 0
0.800000 0.400000 0
0.900000 0.400000 0
1.000000 0.400000 0
1.100000 0.400000 0
1.200000 0.400000 0
1.300000 0.400000 0
1.400000 0.400000 0
1.500000 0.400000 0
1.600000 0.400000 0
1.700000 0.400000 0
1.800000 0.400000 0
1.900000 0.400000 0
2.000000 0.400000 0
0.000000 0.500000 0
0.100000 0.500000 0
0.200000 0.500000 0
0.300000 0.500000 0
0.400000 0.500000 0
0.500000 0.500000 0
0.600000 0.500000 0
0.700000 0.500000 0
0.800000 0.500000 0
0.900000 0.500000 0
1.000000 0.500000 0
1.100000 0.500000 0
1.200000 0.500000 0
1.300000 0.500000 0
1.400000 0.500000 0
1.500000 0.500000 0
1.600000 0.500000 0
1.700000 0.500000 0
1.800000 0.500000 0
1.900000 0.500000 0
2.000000 0.500000 0
0.000000 0.600000 0
0.100000 0.600000 0
0.200000 0.600000 0
0.300000 0.600000 0
0.400000 0.600000 0
0.500000 0.600000 0
0.600000 0.600000 0
0.700000 0.600000 0
0.800000 0.600000 0
0.900000 0.600000 0
1.000000 0.600000 0
1.100000 0.600000 0
1.200000 0.600000 0
1.300000 0.600000 0
1.400000 0.600000 0
1.500000 0.600000 0
1.600000 0.600000 0
1.700000 0.600000 0
1.800000 0.600000 0
1.900000 0.600000 0
2.000000 0.600000 0
0.000000 0.700000 0
0.100000 0.700000 0
0.200000 0.700000 0
0.300000 0.700000 0
0.400000 0.700000 0
0.500000 0.700000 0
0.600000 0.700000 0
0.700000 0.700000 0
0.800000 0.700000 0
0.900000 0.700000 0
1.000000 0.700000 0
1.100000 0.700000 0
1.200000 0.700000 0
1.300000 0.700000 0
1.400000 0.700000 0
1.500000 0.700000 0
1.600000 0.700000 0
1.700000 0.700000 0
1.800000 0.700000 0
1.900000 0.700000 0
2.000000 0.700000 0
0.000000 0.800000 0
0.100000 0.800000 0
0.200000 0.800000 0
0.300000 0.800000 0
0.400000 0.800000 0
0.500000 0.800000 0
0.600000 0.800000 0
0.700000 0.800000 0
0.800000 0.800000 0
0.900000 0.800000 0
1.000000 0.800000 0
1.100000 0.800000 0
1.200000 0.800000 0
1.300000 0.800000 0
1.400000 0.800000 0
1.500000 0.800000 0
1.600000 0.800000 0
1.700000 0.800000 0
1.800000 0.800000 0
1.900000 0.800000 0
2.000000 0.800000 0
0.000000 0.900000 0
0.100000 0.900000 0
0.200000 0.900000 0
0.300000 0.900000 0
0.400000 0.900000 0
0.500000 0.900000 0
0.600000 0.900000 0
0.700000 0.900000 0
0.800000 0.900000 0
0.900000 0.900000 0
1.000000 0.900000 0
1.100000 0.900000 0
1.200000 0.900000 0
1.300000 0.900000 0
1.400000 0.900000 0
1.500000 0.900000 0
1.600000 0.900000 0
1.700000 0.900000 0
1.800000 0.900000 0
1.900000 0.900000 0
2.000000 0.900000 0
0.000000 1.000000 0
0.100000 1.000000 0
0.200000 1.000000 0
0.300000 1.000000 0
0.400000 1.000000 0
0.500000 1.000000 0
0.600000 1.000000 0
0.700000 1.000000 0
0.800000 1.000000 0
0.900000 1.000000 0
1.000000 1.000000 0
1.100000 1.000000 0
1.200000 1.000000 0
1.300000 1.000000 0
1.400000 1.000000 0
1.500000 1.000000 0
1.600000 1.000000 0
1.700000 1.000000 0
1.800000 1.000000 0
1.900000 1.000000 0
2.000000 1.000000 0
0.000000 1.100000 0
0.100000 1.100000 0
0.200000 1.100000 0
0.300000 1.100000 0
0.400000 1.100000 0
0.500000 1.100000 0
0.600000 1.100000 0
0.700000 1.100000 0
0.800000 1.100000 0
0.900000 1.100000 0
1.000000 1.100000 0
1.100000 1.100000 0
1.200000 1.100000 0
1.300000 1.100000 0
1.400000 1.100000 0
1.500000 1.100000 0
1.600000 1.100000 0
1.700000 1.100000 0
1.800000 1.100000 0
1.900000 1.100000 0
2.000000 1.100000 0
0.000000 1.200000 0
0.100000 1.200000 0
0.200000 1.200000 0
0.300000 1.200000 0
0.400000 1.200000 0
0.500000 1.200000 0
0.600000 1.200000 0
0.700000 1.200000 0
0.800000 1.200000 0
0.900000 1.200000 0
1.000000 1.200000 0
1.100000 1.200000 0
1.200000 1.200000 0
1.300000 1.200000 0
1.400000 1.200000 0
1.500000 1.200000 0
1.600000 1.200000 0
1.700000 1.200000 0
1.800000 1.200000 0
1.900000 1.200000 0
2.000000 1.200000 0
0.000000 1.300000 0
0.100000 1.300000 0
0.200000 1.300000 0
0.300000 1.300000 0
0.400000 1.300000 0
0.500000 1.300000 0
0.600000 1.300000 0
0.700000 1.300000 0
0.800000 1.300000 0
0.900000 1.300000 0
1.000000 1.300000 0
1.100000 1.300000 0
1.200000 1.300000 0
1.300000 1.300000 0
1.400000 1.300000 0
1.500000 1.300000 0
1.600000 1.300000 0
1.700000 1.300000 0
1.800000 1.300000 0
1.900000 1.300000 0
2.000000 1.300000 0
0.000000 1.400000 0
0.100000 1.400000 0
0.200000 1.400000 0
0.300000 1.400000 0
0.400000 1.400000 0
0.500000 1.400000 0
0.600000 1.400000 0
0.700000 1.400000 0
0.800000 1.400000 0
0.900000 1.400000 0
1.000000 1.400000 0
1.100000 1.400000 0
1.200000 1.400000 0
1.300000 1.400000 0
1.400000 1.400000 0
1.500000 1.400000 0
1.600000 1.400000 0
1.700000 1.400000 0
1.800000 1.400000 0
1.900000 1.400000 0
2.000000 1.400000 0
0.000000 1.500000 0
0.100000 1.500000 0
0.200000 1.500000 0
0.300000 1.500000 0
0.400000 1.500000 0
0.500000 1.500000 0
0.600000 1.500000 0
0.700000 1.500000 0
0.800000 1.500000 0
0.900000 1.500000 0
1.000000 1.500000 0
1.100000 1.500000 0
1.200000 1.500000 0
1.300000 1.500000 0
1.400000 1.500000 0
1.500000 1.500000 0
1.600000 1.500000 0
1.700000 1.500000 0
1.800000 1.500000 0
1.900000 1.500000 0
2.000000 1.500000 0
0.000000 1.600000 0
0.100000 1.600000 0
0.200000 1.600000 0
0.300000 1.600000 0
0.400000 1.600000 0
0.500000 1.600000 0
0.600000 1.600000 0
0.700000 1.600000 0
0.800000 1.600000 0
0.900000 1.600000 0
1.000000 1.600000 0
1.100000 1.600000 0
1.200000 1.600000 0
1.300000 1.600000 0
1.400000 1.600000 0
1.500000 1.600000 0
1.600000 1.600000 0
1.700000 1.600000 0
1.800000 1.600000 0
1.900000 1.600000 0
2.000000 1.600000 0
0.000000 1.700000 0
0.100000 1.700000 0
0.200000 1.700000 0
0.300000 1.700000 0
0.400000 1.700000 0
0.500000 1.700000 0
0.600000 1.700000 0
0.700000 1.700000 0
0.800000 1.700000 0
0.900000 1.700000 0
1.000000 1.700000 0
1.100000 1.700000 0
1.200000 1.700000 0
1.300000 1.700000 0
1.400000 1.700000 0
1.500000 1.700000 0
1.600000 1.700000 0
1.700000 1.700000 0
1.800000 1.700000 0
1.900000 1.700000 0
2.000000 1.700000 0
0.000000 1.800000 0
0.100000 1.800000 0
0.200000 1.800000 0
0.300000 1.800000 0
0.400000 1.800000 0
0.500000 1.800000 0
0.600000 1.800000 0
0.700000 1.800000 0
0.800000 1.800000 0
0.900000 1.800000 0
1.000000 1.800000 0
1.100000 1.800000 0
1.200000 1.800000 0
1.300000 1.800000 0
1.400000 1.800000 0
1.500000 1.800000 0
1.600000 1.800000 0
1.700000 1.800000 0
1.800000 1.800000 0
1.900000 1.800000 0
2.000000 1.800000 0
0.000000 1.900000 0
0.100000 1.900000 0
0.200000 1.900000 0
0.300000 1.900000 0
0.400000 1.900000 0
0.500000 1.900000 0
0.600000 1.900000 0
0.700000 1.900000 0
0.800000 1.900000 0
0.900000 1.900000 0
1.000000 1.900000 0
1.100000 1.900000 0
1.200000 1.900000 0
1.300000 1.900000 0
1.400000 1.900000 0
1.500000 1.900000 0
1.600000 1.900000 0
1.700000 1.900000 0
1.800000 1.900000 0
1.900000 1.900000 0
2.000000 1.900000 0
0.000000 2.000000 0
0.100000 2.000000 0
0.200000 2.000000 0
0.300000 2.000000 0
0.400000 2.000000 0
0.500000 2.000000 0
0.600000 2.000000 0
0.700000 2.000000 0
0.800000 2.000000 0
0.900000 2.000000 0
1.000000 2.000000 0
1.100000 2.000000 0
1.200000 2.000000 0
1.300000 2.000000 0
1.400000 2.000000 0
1.500000 2.000000 0
1.600000 2.000000 0
1.700000 2.000000 0
1.800000 2.000000 0
1.900000 2.000000 0
2.000000 2.000000 0
POINT_DATA 441 

VECTORS velocity float
0.000000 0.000000 0
0.000011 0.000000 0
0.000010 0.000000 0
0.000002 0.000000 0
-0.000005 0.000000 0
-0.000008 0.000000 0
-0.000006 0.000000 0
-0.000001 0.000000 0
0.000002 0.000000 0
0.000004 0.000000 0
0.000003 0.000000 0
0.000002 0.000000 0
0.000000 0.000000 0
-0.000001 0.000000 0
-0.000001 0.000000 0
-0.000001 0.000000 0
-0.000000 0.000000 0
-0.000000 0.000000 0
-0.000000 0.000000 0
-0.000000 0.000000 0
-0.000000 0.000000 0
0.000000 0.000014 0
0.000021 -0.000009 0
0.000032 -0.000020 0
0.000041 -0.000022 0
0.000048 -0.000014 0
0.000050 0.000001 0
0.000045 0.000015 0
0.000031 0.000026 0
0.000010 0.000030 0
-0.000017 0.000029 0
-0.000045 0.000025 0
-0.000072 0.000020 0
-0.000094 0.000015 0
-0.000111 0.000011 0
-0.000122 0.000007 0
-0.000129 0.000004 0
-0.000132 0.000002 0
-0.000132 0.000000 0
-0.000132 -0.000000 0
-0.000131 -0.000000 0
-0.000131 -0.000000 0
0.000000 0.000002 0
0.000013 -0.000036 0
0.000032 -0.000036 0
0.000049 -0.000022 0
0.000060 -0.000003 0
0.000061 0.000015 0
0.000052 0.000030 0
0.000034 0.000041 0
0.000008 0.000048 0
-0.000022 0.000051 0
-0.000053 0.000050 0
-0.000082 0.000045 0
-0.000105 0.000037 0
-0.000123 0.000028 0
-0.000134 0.000019 0
-0.000141 0.000010 0
-0.000143 0.000004 0
-0.000144 0.000000 0
-0.000143 -0.000001 0
-0.000142 -0.000001 0
-0.000141 -0.000001 0
0.000000 -0.000007 0
0.000014 -0.000052 0
0.000039 -0.000043 0
0.000058 -0.000026 0
0.000068 -0.000008 0
0.000068 0.000012 0
0.000058 0.000033 0
0.000038 0.000055 0
0.000011 0.000072 0
-0.000021 0.000083 0
-0.000055 0.000084 0
-0.000086 0.000076 0
-0.000111 0.000061 0
-0.000128 0.000044 0
-0.000139 0.000027 0
-0.000144 0.000014 0
-0.000144 0.000004 0
-0.000143 -0.000001 0
-0.000141 -0.000003 0
-0.000140 -0.000002 0
-0.000139 -0.000001 0
0.000000 -0.000001 0
0.000021 -0.000067 0
0.000046 -0.000062 0
0.000065 -0.000046 0
0.000076 -0.000023 0
0.000079 0.000008 0
0.000071 0.000045 0
0.000051 0.000081 0
0.000020 0.000109 0
-0.000018 0.000123 0
-0.000058 0.000122 0
-0.000093 0.000106 0
-0.000120 0.000082 0
-0.000136 0.000056 0
-0.000145 0.000032 0
-0.000146 0.000015 0
-0.000144 0.000003 0
-0.000141 -0.000003 0
-0.000137 -0.000005 0
-0.000135 -0.000003 0
-0.000135 -0.000001 0
0.000000 0.000004 0
0.000023 -0.000091 0
0.000049 -0.000089 0
0.000071 -0.000068 0
0.000088 -0.000033 0
0.000095 0.000012 0
0.000089 0.000064 0
0.000067 0.000112 0
0.000031 0.000149 0
-0.000016 0.000166 0
-0.000063 0.000161 0
-0.000103 0.000136 0
-0.000131 0.000102 0
-0.000145 0.000066 0
-0.000150 0.000036 0
-0.000148 0.000013 0
-0.000142 -0.000001 0
-0.000136 -0.000008 0
-0.000131 -0.000008 0
-0.000128 -0.000004 0
-0.000128 -0.000002 0
0.000000 0.000001 0
0.000023 -0.000120 0
0.000051 -0.000116 0
0.000079 -0.000087 0
0.000100 -0.000043 0
0.000111 0.000014 0
0.000107 0.000079 0
0.000083 0.000142 0
0.000041 0.000192 0
-0.000013 0.000214 0
-0.000068 0.000206 0
-0.000112 0.000171 0
-0.000140 0.000123 0
-0.000152 0.000075 0
-0.000152 0.000035 0
-0.000145 0.000008 0
-0.000136 -0.000008 0
-0.000128 -0.000014 0
-0.000121 -0.000013 0
-0.000117 -0.000006 0
-0.000117 -0.000002 0
0.000000 -0.000002 0
0.000023 -0.000147 0
0.000054 -0.000142 0
0.000083 -0.000109 0
0.000106 -0.000060 0
0.000120 0.000008 0
0.000119 0.000089 0
0.000096 0.000174 0
0.000050 0.000241 0
-0.000010 0.000273 0
-0.000071 0.000259 0
-0.000117 0.000209 0
-0.000144 0.000143 0
-0.000151 0.000079 0
-0.000147 0.000030 0
-0.000136 -0.000002 0
-0.000124 -0.000019 0
-0.000114 -0.000023 0
-0.000106 -0.000019 0
-0.000101 -0.000008 0
-0.000101 -0.000002 0
0.000000 -0.000001 0
0.000022 -0.000172 0
0.000050 -0.000169 0
0.000077 -0.000136 0
0.000100 -0.000082 0
0.000117 -0.000003 0
0.000119 0.000099 0
0.000099 0.000208 0
0.000055 0.000297 0
-0.000006 0.000337 0
-0.000067 0.000315 0
-0.000113 0.000246 0
-0.000135 0.000158 0
-0.000138 0.000078 0
-0.000130 0.000020 0
-0.000117 -0.000015 0
-0.000103 -0.000031 0
-0.000092 -0.000033 0
-0.000084 -0.000025 0
-0.000080 -0.000011 0
-0.000080 -0.000002 0
0.000000 0.000001 0
0.000018 -0.000195 0
0.000038 -0.000196 0
0.000060 -0.000162 0
0.000080 -0.000102 0
0.000096 -0.000012 0
0.000100 0.000107 0
0.000086 0.000239 0
0.000050 0.000348 0
-0.000002 0.000397 0
-0.000054 0.000366 0
-0.000091 0.000277 0
-0.000107 0.000168 0
-0.000107 0.000074 0
-0.000097 0.000008 0
-0.000085 -0.000029 0
-0.000073 -0.000043 0
-0.000063 -0.000042 0
-0.000057 -0.000031 0
-0.000053 -0.000013 0
-0.000053 -0.000003 0
0.000000 -0.000000 0
0.000009 -0.000212 0
0.000021 -0.000214 0
0.000034 -0.000179 0
0.000046 -0.000116 0
0.000056 -0.000020 0
0.000059 0.000111 0
0.000052 0.000259 0
0.000031 0.000385 0
0.000001 0.000440 0
-0.000029 0.000403 0
-0.000049 0.000298 0
-0.000057 0.000173 0
-0.000055 0.000069 0
-0.000049 -0.000002 0
-0.000041 -0.000039 0
-0.000034 -0.000053 0
-0.000028 -0.000049 0
-0.000024 -0.000035 0
-0.000022 -0.000014 0
-0.000022 -0.000003 0
0.000000 -0.000001 0
-0.000000 -0.000218 0
0.000000 -0.000220 0
0.000001 -0.000184 0
0.000002 -0.000122 0
0.000002 -0.000024 0
0.000003 0.000110 0
0.000003 0.000265 0
0.000004 0.000397 0
0.000005 0.000455 0
0.000006 0.000416 0
0.000007 0.000305 0
0.000008 0.000175 0
0.000009 0.000066 0
0.000009 -0.000006 0
0.000010 -0.000044 0
0.000011 -0.000056 0
0.000011 -0.000052 0
0.000012 -0.000037 0
0.000012 -0.000015 0
0.000012 -0.000003 0
0.000000 -0.000001 0
-0.000009 -0.000212 0
-0.000021 -0.000214 0
-0.000032 -0.000179 0
-0.000043 -0.000117 0
-0.000052 -0.000022 0
-0.000054 0.000108 0
-0.000045 0.000256 0
-0.000023 0.000382 0
0.000009 0.000438 0
0.000041 0.000401 0
0.000063 0.000297 0
0.000073 0.000172 0
0.000073 0.000067 0
0.000068 -0.000003 0
0.000061 -0.000041 0
0.000056 -0.000054 0
0.000051 -0.000050 0
0.000048 -0.000036 0
0.000047 -0.000014 0
0.000046 -0.000003 0
0.000000 -0.000000 0
-0.000017 -0.000197 0
-0.000038 -0.000197 0
-0.000059 -0.000162 0
-0.000079 -0.000103 0
-0.000093 -0.000014 0
-0.000095 0.000104 0
-0.000079 0.000235 0
-0.000042 0.000344 0
0.000012 0.000392 0
0.000066 0.000362 0
0.000104 0.000273 0
0.000123 0.000165 0
0.000124 0.000071 0
0.000117 0.000005 0
0.000106 -0.000032 0
0.000096 -0.000046 0
0.000088 -0.000045 0
0.000082 -0.000032 0
0.000079 -0.000013 0
0.000079 -0.000002 0
0.000000 -0.000000 0
-0.000023 -0.000174 0
-0.000050 -0.000173 0
-0.000077 -0.000139 0
-0.000100 -0.000083 0
-0.000115 -0.000004 0
-0.000116 0.000096 0
-0.000095 0.000203 0
-0.000049 0.000291 0
0.000014 0.000330 0
0.000078 0.000308 0
0.000126 0.000239 0
0.000151 0.000152 0
0.000157 0.000073 0
0.000151 0.000015 0
0.000140 -0.000020 0
0.000128 -0.000035 0
0.000118 -0.000036 0
0.000111 -0.000027 0
0.000108 -0.000011 0
0.000107 -0.000002 0
0.000000 -0.000000 0
-0.000026 -0.000147 0
-0.000056 -0.000144 0
-0.000085 -0.000113 0
-0.000108 -0.000064 0
-0.000121 0.000003 0
-0.000119 0.000084 0
-0.000094 0.000168 0
-0.000047 0.000234 0
0.000016 0.000265 0
0.000081 0.000250 0
0.000131 0.000200 0
0.000161 0.000134 0
0.000172 0.000071 0
0.000170 0.000022 0
0.000162 -0.000009 0
0.000152 -0.000025 0
0.000142 -0.000028 0
0.000135 -0.000021 0
0.000132 -0.000009 0
0.000131 -0.000002 0
0.000000 -0.000000 0
-0.000027 -0.000118 0
-0.000059 -0.000114 0
-0.000087 -0.000087 0
-0.000108 -0.000047 0
-0.000118 0.000007 0
-0.000112 0.000069 0
-0.000086 0.000131 0
-0.000041 0.000180 0
0.000018 0.000203 0
0.000078 0.000194 0
0.000127 0.000159 0
0.000160 0.000111 0
0.000176 0.000064 0
0.000180 0.000025 0
0.000176 -0.000001 0
0.000168 -0.000016 0
0.000160 -0.000020 0
0.000154 -0.000016 0
0.000151 -0.000007 0
0.000150 -0.000002 0
0.000000 -0.000000 0
-0.000028 -0.000088 0
-0.000059 -0.000084 0
-0.000086 -0.000064 0
-0.000105 -0.000033 0
-0.000112 0.000007 0
-0.000104 0.000052 0
-0.000078 0.000096 0
-0.000035 0.000130 0
0.000019 0.000146 0
0.000074 0.000141 0
0.000121 0.000118 0
0.000155 0.000085 0
0.000175 0.000052 0
0.000184 0.000023 0
0.000184 0.000002 0
0.000179 -0.000009 0
0.000174 -0.000014 0
0.000168 -0.000012 0
0.000165 -0.000005 0
0.000165 -0.000001 0
0.000000 -0.000000 0
-0.000029 -0.000059 0
-0.000060 -0.000056 0
-0.000086 -0.000042 0
-0.000104 -0.000021 0
-0.000109 0.000006 0
-0.000099 0.000035 0
-0.000073 0.000063 0
-0.000032 0.000084 0
0.000018 0.000094 0
0.000070 0.000091 0
0.000116 0.000077 0
0.000151 0.000057 0
0.000174 0.000036 0
0.000186 0.000017 0
0.000189 0.000003 0
0.000187 -0.000005 0
0.000182 -0.000009 0
0.000178 -0.000008 0
0.000175 -0.000003 0
0.000174 -0.000001 0
0.000000 -0.000000 0
-0.000028 -0.000028 0
-0.000059 -0.000027 0
-0.000084 -0.000020 0
-0.000100 -0.000010 0
-0.000105 0.000003 0
-0.000095 0.000016 0
-0.000070 0.000029 0
-0.000032 0.000039 0
0.000014 0.000044 0
0.000062 0.000043 0
0.000105 0.000036 0
0.000139 0.000027 0
0.000162 0.000017 0
0.000175 0.000008 0
0.000179 0.000001 0
0.000178 -0.000003 0
0.000173 -0.000004 0
0.000169 -0.000004 0
0.000166 -0.000002 0
0.000165 -0.000000 0
0.000000 0.000000 0
-0.000000 0.000000 0
0.000000 0.000000 0
-0.000000 0.000000 0
-0.000000 0.000000 0
-0.000000 0.000000 0
-0.000000 0.000000 0
-0.000000 0.000000 0
-0.000000 0.000000 0
-0.000000 0.000000 0
0.000000 0.000000 0
0.000000 0.000000 0
0.000000 0.000000 0
0.000000 0.000000 0
0.000000 0.000000 0
0.000000 0.000000 0
0.000000 0.000000 0
0.000000 0.000000 0
0.000000 0.000000 0
0.000000 0.000000 0
0.000000 0.000000 0

CELL_DATA 400 
SCALARS pressure float 1 
LOOKUP_TABLE default 
0.242658
0.242613
0.242573
0.242565
0.242586
0.242618
0.242641
0.242647
0.242638
0.242623
0.242609
0.242603
0.242603
0.242607
0.242611
0.242615
0.242617
0.242618
0.242618
0.242619
0.219601
0.219594
0.219608
0.219628
0.219638
0.219635
0.219623
0.219610
0.219602
0.219601
0.219604
0.219610
0.219614
0.219617
0.219618
0.219617
0.219617
0.219617
0.219618
0.219619
0.196594
0.196626
0.196644
0.196639
0.196619
0.196599
0.196590
0.196592
0.196602
0.196612
0.196619
0.196622
0.196621
0.196618
0.196616
0.196615
0.196616
0.196616
0.196617
0.196618
0.173621
0.173637
0.173629
0.173610
0.173595
0.173591
0.173598
0.173609
0.173619
0.173623
0.173623
0.173619
0.173616
0.173614
0.173613
0.173614
0.173616
0.173617
0.173618
0.173619
0.150624
0.150618
0.150610
0.150606
0.150608
0.150613
0.150617
0.150619
0.150619
0.150617
0.150614
0.150613
0.150613
0.150614
0.150615
0.150616
0.150617
0.150618
0.150619
0.150619
0.127609
0.127610
0.127617
0.127623
0.127625
0.127622
0.127616
0.127611
0.127609
0.127609
0.127611
0.127614
0.127616
0.127617
0.127617
0.127618
0.127618
0.127618
0.127619
0.127620
0.104607
0.104618
0.104627
0.104628
0.104622
0.104614
0.104608
0.104606
0.104608
0.104612
0.104615
0.104618
0.104618
0.104618
0.104618
0.104618
0.104618
0.104619
0.104619
0.104620
0.081616
0.081623
0.081624
0.081620
0.081616
0.081612
0.081611
0.081612
0.081614
0.081616
0.081618
0.081618
0.081618
0.081618
0.081618
0.081618
0.081619
0.081619
0.081620
0.081620
0.058620
0.058618
0.058618
0.058618
0.058619
0.058619
0.058619
0.058618
0.058617
0.058617
0.058617
0.058617
0.058618
0.058618
0.058619
0.058620
0.058620
0.058620
0.058621
0.058621
0.035618
0.035616
0.035619
0.035623
0.035625
0.035624
0.035621
0.035618
0.035617
0.035616
0.035617
0.035618
0.035620
0.035620
0.035621
0.035621
0.035621
0.035621
0.035621
0.035621
0.012619
0.012620
0.012624
0.012626
0.012626
0.012624
0.012621
0.012619
0.012619
0.012619
0.012621
0.012622
0.012622
0.012622
0.012622
0.012622
0.012622
0.012622
0.012622
0.012622
-0.010377
-0.010377
-0.010376
-0.010375
-0.010375
-0.010376
-0.010376
-0.010376
-0.010376
-0.010376
-0.010376
-0.010376
-0.010376
-0.010376
-0.010377
-0.010377
-0.010377
-0.010377
-0.010377
-0.010377
-0.033374
-0.033376
-0.033377
-0.033376
-0.033374
-0.033373
-0.033372
-0.033372
-0.033373
-0.033374
-0.033374
-0.033375
-0.033375
-0.033375
-0.033375
-0.033375
-0.033376
-0.033376
-0.033376
-0.033377
-0.056374
-0.056376
-0.056375
-0.056373
-0.056371
-0.056370
-0.056370
-0.056371
-0.056371
-0.056372
-0.056372
-0.056373
-0.056373
-0.056373
-0.056374
-0.056374
-0.056375
-0.056375
-0.056376
-0.056376
-0.079373
-0.079374
-0.079373
-0.079372
-0.079370
-0.079370
-0.079369
-0.079370
-0.079370
-0.079370
-0.079370
-0.079371
-0.079371
-0.079372
-0.079372
-0.079373
-0.079374
-0.079374
-0.079375
-0.079376
-0.102371
-0.102372
-0.102372
-0.102371
-0.102370
-0.102369
-0.102369
-0.102368
-0.102368
-0.102368
-0.102369
-0.102369
-0.102370
-0.102371
-0.102371
-0.102372
-0.102373
-0.102374
-0.102374
-0.102375
-0.125370
-0.125371
-0.125371
-0.125371
-0.125370
-0.125368
-0.125367
-0.125367
-0.125367
-0.125367
-0.125368
-0.125369
-0.125369
-0.125370
-0.125371
-0.125371
-0.125372
-0.125373
-0.125374
-0.125375
-0.148369
-0.148370
-0.148371
-0.148370
-0.148369
-0.148368
-0.148367
-0.148366
-0.148366
-0.148367
-0.148367
-0.148368
-0.148368
-0.148369
-0.148370
-0.148371
-0.148372
-0.148372
-0.148373
-0.148374
-0.171369
-0.171369
-0.171370
-0.171369
-0.171368
-0.171367
-0.171366
-0.171366
-0.171366
-0.171366
-0.171366
-0.171367
-0.171367
-0.171368
-0.171369
-0.171370
-0.171371
-0.171372
-0.171373
-0.171374
-0.194369
-0.194369
-0.194369
-0.194369
-0.194368
-0.194367
-0.194366
-0.194365
-0.194365
-0.194365
-0.194365
-0.194366
-0.194366
-0.194367
-0.194368
-0.194369
-0.194370
-0.194371
-0.194372
-0.194373

SCALARS temperature float 1 
LOOKUP_TABLE default 
0.000021
0.000170
0.000458
0.000864
0.001352
0.001878
0.002388
0.002828
0.003149
0.003322
0.003341
0.003223
0.003000
0.002715
0.002409
0.002116
0.001861
0.001661
0.001525
0.001456
0.000023
0.000185
0.000498
0.000940
0.001474
0.002051
0.002611
0.003092
0.003442
0.003624
0.003634
0.003492
0.003236
0.002915
0.002574
0.002251
0.001973
0.001755
0.001608
0.001534
0.000027
0.000216
0.000582
0.001101
0.001733
0.002419
0.003088
0.003661
0.004070
0.004271
0.004258
0.004060
0.003728
0.003325
0.002908
0.002520
0.002191
0.001938
0.001767
0.001682
0.000033
0.000265
0.000718
0.001366
0.002163
0.003037
0.003895
0.004629
0.005142
0.005371
0.005308
0.005001
0.004530
0.003981
0.003432
0.002935
0.002523
0.002211
0.002003
0.001901
0.000042
0.000338
0.000919
0.001760
0.002810
0.003982
0.005145
0.006144
0.006824
0.007087
0.006927
0.006425
0.005714
0.004927
0.004168
0.003505
0.002970
0.002573
0.002313
0.002186
0.000055
0.000435
0.001191
0.002304
0.003722
0.005339
0.006977
0.008392
0.009337
0.009640
0.009296
0.008460
0.007358
0.006198
0.005129
0.004228
0.003524
0.003013
0.002686
0.002526
0.000071
0.000557
0.001535
0.003004
0.004924
0.007174
0.009515
0.011572
0.012922
0.013265
0.012600
0.011217
0.009506
0.007800
0.006298
0.005082
0.004161
0.003511
0.003101
0.002903
0.000088
0.000695
0.001931
0.003828
0.006379
0.009468
0.012790
0.015779
0.017728
0.018105
0.016919
0.014699
0.012113
0.009664
0.007608
0.006007
0.004834
0.004028
0.003527
0.003289
0.000106
0.000833
0.002334
0.004685
0.007939
0.012018
0.016564
0.020773
0.023523
0.023924
0.021999
0.018649
0.014944
0.011605
0.008921
0.006909
0.005477
0.004513
0.003924
0.003646
0.000121
0.000949
0.002675
0.005424
0.009321
0.014358
0.020150
0.025660
0.029284
0.029699
0.026944
0.022368
0.017508
0.013300
0.010035
0.007658
0.006005
0.004910
0.004248
0.003937
0.000130
0.001017
0.002879
0.005870
0.010167
0.015823
0.022451
0.028866
0.033109
0.033538
0.030198
0.024769
0.019131
0.014360
0.010730
0.008131
0.006344
0.005170
0.004463
0.004132
0.000131
0.001026
0.002902
0.005911
0.010228
0.015903
0.022549
0.028989
0.033263
0.033707
0.030370
0.024939
0.019295
0.014512
0.010866
0.008250
0.006448
0.005262
0.004547
0.004211
0.000125
0.000975
0.002744
0.005551
0.009511
0.014611
0.020467
0.026054
0.029761
0.030222
0.027474
0.022885
0.018001
0.013755
0.010441
0.008015
0.006316
0.005186
0.004498
0.004174
0.000112
0.000879
0.002455
0.004907
0.008278
0.012477
0.017145
0.021481
0.024351
0.024820
0.022905
0.019529
0.015774
0.012365
0.009598
0.007501
0.005993
0.004969
0.004338
0.004037
0.000097
0.000761
0.002108
0.004157
0.006886
0.010164
0.013674
0.016840
0.018936
0.019396
0.018223
0.015961
0.013293
0.010735
0.008555
0.006833
0.005553
0.004661
0.004102
0.003832
0.000082
0.000645
0.001771
0.003447
0.005613
0.008127
0.010726
0.013013
0.014539
0.014977
0.014322
0.012874
0.011044
0.009184
0.007515
0.006138
0.005077
0.004318
0.003832
0.003595
0.000069
0.000546
0.001488
0.002863
0.004596
0.006552
0.008520
0.010221
0.011375
0.011786
0.011444
0.010518
0.009255
0.007895
0.006613
0.005511
0.004633
0.003989
0.003569
0.003362
0.000060
0.000471
0.001276
0.002435
0.003868
0.005454
0.007020
0.008361
0.009288
0.009673
0.009505
0.008884
0.007970
0.006935
0.005917
0.005012
0.004271
0.003714
0.003346
0.003163
0.000053
0.000421
0.001139
0.002160
0.003411
0.004776
0.006109
0.007248
0.008048
0.008413
0.008333
0.007876
0.007157
0.006311
0.005453
0.004671
0.004017
0.003519
0.003186
0.003019
0.000050
0.000397
0.001071
0.002027
0.003191
0.004454
0.005682
0.006731
0.007473
0.007828
0.007785
0.007397
0.006765
0.006005
0.005221
0.004497
0.003887
0.003418
0.003102
0.002944


SCALARS Species_1 float 1 
LOOKUP_TABLE default 
0.000585
0.001749
0.002898
0.004024
0.005115
0.006161
0.007152
0.008077
0.008926
0.009693
0.010372
0.010959
0.011456
0.011866
0.012195
0.012450
0.012641
0.012774
0.012859
0.012900
0.000584
0.001748
0.002897
0.004022
0.005113
0.006158
0.007149
0.008073
0.008922
0.009689
0.010367
0.010955
0.011452
0.011862
0.012192
0.012447
0.012638
0.012772
0.012857
0.012898
0.000584
0.001747
0.002895
0.004020
0.005109
0.006154
0.007143
0.008067
0.008916
0.009682
0.010360
0.010947
0.011444
0.011855
0.012184
0.012440
0.012631
0.012765
0.012850
0.012891
0.000583
0.001744
0.002891
0.004013
0.005101
0.006144
0.007132
0.008054
0.008901
0.009666
0.010343
0.010930
0.011426
0.011836
0.012165
0.012421
0.012612
0.012746
0.012831
0.012872
0.000581
0.001739
0.002881
0.004000
0.005084
0.006123
0.007108
0.008027
0.008871
0.009633
0.010308
0.010893
0.011388
0.011796
0.012125
0.012380
0.012570
0.012705
0.012790
0.012831
0.000578
0.001728
0.002864
0.003976
0.005054
0.006087
0.007065
0.007978
0.008818
0.009575
0.010246
0.010827
0.011319
0.011726
0.012052
0.012306
0.012496
0.012630
0.012714
0.012755
0.000572
0.001712
0.002837
0.003938
0.005005
0.006029
0.006997
0.007902
0.008733
0.009484
0.010148
0.010724
0.011211
0.011614
0.011937
0.012189
0.012377
0.012510
0.012594
0.012635
0.000565
0.001689
0.002798
0.003884
0.004936
0.005945
0.006900
0.007792
0.008612
0.009352
0.010007
0.010575
0.011055
0.011452
0.011771
0.012020
0.012206
0.012337
0.012420
0.012461
0.000554
0.001657
0.002746
0.003811
0.004844
0.005833
0.006771
0.007646
0.008450
0.009176
0.009818
0.010375
0.010847
0.011236
0.011550
0.011794
0.011977
0.012106
0.012188
0.012227
0.000541
0.001617
0.002680
0.003720
0.004727
0.005693
0.006608
0.007462
0.008246
0.008954
0.009581
0.010124
0.010585
0.010965
0.011271
0.011510
0.011689
0.011815
0.011895
0.011934
0.000525
0.001570
0.002601
0.003611
0.004589
0.005526
0.006414
0.007242
0.008004
0.008691
0.009299
0.009826
0.010273
0.010642
0.010940
0.011172
0.011346
0.011469
0.011547
0.011585
0.000507
0.001516
0.002512
0.003487
0.004432
0.005337
0.006194
0.006994
0.007729
0.008392
0.008979
0.009488
0.009919
0.010277
0.010564
0.010789
0.010957
0.011077
0.011152
0.011189
0.000487
0.001458
0.002416
0.003353
0.004261
0.005132
0.005955
0.006724
0.007431
0.008068
0.008632
0.009122
0.009537
0.009881
0.010158
0.010375
0.010537
0.010653
0.010726
0.010761
0.000467
0.001397
0.002316
0.003214
0.004085
0.004919
0.005708
0.006445
0.007122
0.007733
0.008274
0.008744
0.009143
0.009473
0.009739
0.009947
0.010104
0.010215
0.010285
0.010319
0.000447
0.001338
0.002217
0.003077
0.003910
0.004709
0.005464
0.006170
0.006818
0.007403
0.007922
0.008372
0.008754
0.009071
0.009326
0.009526
0.009677
0.009783
0.009851
0.009884
0.000428
0.001282
0.002124
0.002948
0.003747
0.004512
0.005236
0.005912
0.006534
0.007095
0.007592
0.008024
0.008391
0.008695
0.008941
0.009133
0.009278
0.009380
0.009446
0.009477
0.000412
0.001232
0.002043
0.002835
0.003603
0.004339
0.005036
0.005686
0.006284
0.006824
0.007303
0.007719
0.008073
0.008366
0.008603
0.008789
0.008929
0.009027
0.009091
0.009121
0.000399
0.001193
0.001977
0.002744
0.003488
0.004201
0.004875
0.005505
0.006084
0.006607
0.007071
0.007474
0.007817
0.008102
0.008332
0.008512
0.008648
0.008744
0.008805
0.008835
0.000390
0.001165
0.001931
0.002681
0.003407
0.004103
0.004762
0.005378
0.005943
0.006455
0.006909
0.007303
0.007639
0.007917
0.008143
0.008319
0.008452
0.008546
0.008606
0.008635
0.000385
0.001151
0.001908
0.002648
0.003366
0.004053
0.004704
0.005312
0.005871
0.006377
0.006825
0.007215
0.007547
0.007822
0.008045
0.008219
0.008351
0.008444
0.008503
0.008532


SCALARS Species_2 float 1 
LOOKUP_TABLE default 
0.000284
0.000842
0.001370
0.001851
0.002269
0.002615
0.002880
0.003063
0.003166
0.003194
0.003157
0.003067
0.002937
0.002782
0.002617
0.002455
0.002310
0.002191
0.002107
0.002063
0.000291
0.000861
0.001401
0.001892
0.002320
0.002673
0.002945
0.003132
0.003237
0.003267
0.003229
0.003138
0.003005
0.002847
0.002679
0.002514
0.002366
0.002244
0.002159
0.002115
0.000303
0.000898
0.001461
0.001974
0.002420
0.002789
0.003072
0.003268
0.003378
0.003408
0.003370
0.003275
0.003137
0.002973
0.002798
0.002626
0.002472
0.002345
0.002256
0.002210
0.000321
0.000953