# vtk DataFile Version 2.0
generated by CFD-lab course output (written by Tobias Neckel) 
ASCII

DATASET STRUCTURED_GRID
DIMENSIONS  21 21 1 
POINTS 441 float

0.000000 0.000000 0
0.100000 0.000000 0
0.200000 0.000000 0
0.300000 0.000000 0
0.400000 0.000000 0
0.500000 0.000000 0
0.600000 0.000000 0
0.700000 0.000000 0
0.800000 0.000000 0
0.900000 0.000000 0
1.000000 0.000000 0
1.100000 0.000000 0
1.200000 0.000000 0
1.300000 0.000000 0
1.400000 0.000000 0
1.500000 0.000000 0
1.600000 0.000000 0
1.700000 0.000000 0
1.800000 0.000000 0
1.900000 0.000000 0
2.000000 0.000000 0
0.000000 0.100000 0
0.100000 0.100000 0
0.200000 0.100000 0
0.300000 0.100000 0
0.400000 0.100000 0
0.500000 0.100000 0
0.600000 0.100000 0
0.700000 0.100000 0
0.800000 0.100000 0
0.900000 0.100000 0
1.000000 0.100000 0
1.100000 0.100000 0
1.200000 0.100000 0
1.300000 0.100000 0
1.400000 0.100000 0
1.500000 0.100000 0
1.600000 0.100000 0
1.700000 0.100000 0
1.800000 0.100000 0
1.900000 0.100000 0
2.000000 0.100000 0
0.000000 0.200000 0
0.100000 0.200000 0
0.200000 0.200000 0
0.300000 0.200000 0
0.400000 0.200000 0
0.500000 0.200000 0
0.600000 0.200000 0
0.700000 0.200000 0
0.800000 0.200000 0
0.900000 0.200000 0
1.000000 0.200000 0
1.100000 0.200000 0
1.200000 0.200000 0
1.300000 0.200000 0
1.400000 0.200000 0
1.500000 0.200000 0
1.600000 0.200000 0
1.700000 0.200000 0
1.800000 0.200000 0
1.900000 0.200000 0
2.000000 0.200000 0
0.000000 0.300000 0
0.100000 0.300000 0
0.200000 0.300000 0
0.300000 0.300000 0
0.400000 0.300000 0
0.500000 0.300000 0
0.600000 0.300000 0
0.700000 0.300000 0
0.800000 0.300000 0
0.900000 0.300000 0
1.000000 0.300000 0
1.100000 0.300000 0
1.200000 0.300000 0
1.300000 0.300000 0
1.400000 0.300000 0
1.500000 0.300000 0
1.600000 0.300000 0
1.700000 0.300000 0
1.800000 0.300000 0
1.900000 0.300000 0
2.000000 0.300000 0
0.000000 0.400000 0
0.100000 0.400000 0
0.200000 0.400000 0
0.300000 0.400000 0
0.400000 0.400000 0
0.500000 0.400000 0
0.600000 0.400000 0
0.700000 0.400000 0
0.800000 0.400000 0
0.900000 0.400000 0
1.000000 0.400000 0
1.100000 0.400000 0
1.200000 0.400000 0
1.300000 0.400000 0
1.400000 0.400000 0
1.500000 0.400000 0
1.600000 0.400000 0
1.700000 0.400000 0
1.800000 0.400000 0
1.900000 0.400000 0
2.000000 0.400000 0
0.000000 0.500000 0
0.100000 0.500000 0
0.200000 0.500000 0
0.300000 0.500000 0
0.400000 0.500000 0
0.500000 0.500000 0
0.600000 0.500000 0
0.700000 0.500000 0
0.800000 0.500000 0
0.900000 0.500000 0
1.000000 0.500000 0
1.100000 0.500000 0
1.200000 0.500000 0
1.300000 0.500000 0
1.400000 0.500000 0
1.500000 0.500000 0
1.600000 0.500000 0
1.700000 0.500000 0
1.800000 0.500000 0
1.900000 0.500000 0
2.000000 0.500000 0
0.000000 0.600000 0
0.100000 0.600000 0
0.200000 0.600000 0
0.300000 0.600000 0
0.400000 0.600000 0
0.500000 0.600000 0
0.600000 0.600000 0
0.700000 0.600000 0
0.800000 0.600000 0
0.900000 0.600000 0
1.000000 0.600000 0
1.100000 0.600000 0
1.200000 0.600000 0
1.300000 0.600000 0
1.400000 0.600000 0
1.500000 0.600000 0
1.600000 0.600000 0
1.700000 0.600000 0
1.800000 0.600000 0
1.900000 0.600000 0
2.000000 0.600000 0
0.000000 0.700000 0
0.100000 0.700000 0
0.200000 0.700000 0
0.300000 0.700000 0
0.400000 0.700000 0
0.500000 0.700000 0
0.600000 0.700000 0
0.700000 0.700000 0
0.800000 0.700000 0
0.900000 0.700000 0
1.000000 0.700000 0
1.100000 0.700000 0
1.200000 0.700000 0
1.300000 0.700000 0
1.400000 0.700000 0
1.500000 0.700000 0
1.600000 0.700000 0
1.700000 0.700000 0
1.800000 0.700000 0
1.900000 0.700000 0
2.000000 0.700000 0
0.000000 0.800000 0
0.100000 0.800000 0
0.200000 0.800000 0
0.300000 0.800000 0
0.400000 0.800000 0
0.500000 0.800000 0
0.600000 0.800000 0
0.700000 0.800000 0
0.800000 0.800000 0
0.900000 0.800000 0
1.000000 0.800000 0
1.100000 0.800000 0
1.200000 0.800000 0
1.300000 0.800000 0
1.400000 0.800000 0
1.500000 0.800000 0
1.600000 0.800000 0
1.700000 0.800000 0
1.800000 0.800000 0
1.900000 0.800000 0
2.000000 0.800000 0
0.000000 0.900000 0
0.100000 0.900000 0
0.200000 0.900000 0
0.300000 0.900000 0
0.400000 0.900000 0
0.500000 0.900000 0
0.600000 0.900000 0
0.700000 0.900000 0
0.800000 0.900000 0
0.900000 0.900000 0
1.000000 0.900000 0
1.100000 0.900000 0
1.200000 0.900000 0
1.300000 0.900000 0
1.400000 0.900000 0
1.500000 0.900000 0
1.600000 0.900000 0
1.700000 0.900000 0
1.800000 0.900000 0
1.900000 0.900000 0
2.000000 0.900000 0
0.000000 1.000000 0
0.100000 1.000000 0
0.200000 1.000000 0
0.300000 1.000000 0
0.400000 1.000000 0
0.500000 1.000000 0
0.600000 1.000000 0
0.700000 1.000000 0
0.800000 1.000000 0
0.900000 1.000000 0
1.000000 1.000000 0
1.100000 1.000000 0
1.200000 1.000000 0
1.300000 1.000000 0
1.400000 1.000000 0
1.500000 1.000000 0
1.600000 1.000000 0
1.700000 1.000000 0
1.800000 1.000000 0
1.900000 1.000000 0
2.000000 1.000000 0
0.000000 1.100000 0
0.100000 1.100000 0
0.200000 1.100000 0
0.300000 1.100000 0
0.400000 1.100000 0
0.500000 1.100000 0
0.600000 1.100000 0
0.700000 1.100000 0
0.800000 1.100000 0
0.900000 1.100000 0
1.000000 1.100000 0
1.100000 1.100000 0
1.200000 1.100000 0
1.300000 1.100000 0
1.400000 1.100000 0
1.500000 1.100000 0
1.600000 1.100000 0
1.700000 1.100000 0
1.800000 1.100000 0
1.900000 1.100000 0
2.000000 1.100000 0
0.000000 1.200000 0
0.100000 1.200000 0
0.200000 1.200000 0
0.300000 1.200000 0
0.400000 1.200000 0
0.500000 1.200000 0
0.600000 1.200000 0
0.700000 1.200000 0
0.800000 1.200000 0
0.900000 1.200000 0
1.000000 1.200000 0
1.100000 1.200000 0
1.200000 1.200000 0
1.300000 1.200000 0
1.400000 1.200000 0
1.500000 1.200000 0
1.600000 1.200000 0
1.700000 1.200000 0
1.800000 1.200000 0
1.900000 1.200000 0
2.000000 1.200000 0
0.000000 1.300000 0
0.100000 1.300000 0
0.200000 1.300000 0
0.300000 1.300000 0
0.400000 1.300000 0
0.500000 1.300000 0
0.600000 1.300000 0
0.700000 1.300000 0
0.800000 1.300000 0
0.900000 1.300000 0
1.000000 1.300000 0
1.100000 1.300000 0
1.200000 1.300000 0
1.300000 1.300000 0
1.400000 1.300000 0
1.500000 1.300000 0
1.600000 1.300000 0
1.700000 1.300000 0
1.800000 1.300000 0
1.900000 1.300000 0
2.000000 1.300000 0
0.000000 1.400000 0
0.100000 1.400000 0
0.200000 1.400000 0
0.300000 1.400000 0
0.400000 1.400000 0
0.500000 1.400000 0
0.600000 1.400000 0
0.700000 1.400000 0
0.800000 1.400000 0
0.900000 1.400000 0
1.000000 1.400000 0
1.100000 1.400000 0
1.200000 1.400000 0
1.300000 1.400000 0
1.400000 1.400000 0
1.500000 1.400000 0
1.600000 1.400000 0
1.700000 1.400000 0
1.800000 1.400000 0
1.900000 1.400000 0
2.000000 1.400000 0
0.000000 1.500000 0
0.100000 1.500000 0
0.200000 1.500000 0
0.300000 1.500000 0
0.400000 1.500000 0
0.500000 1.500000 0
0.600000 1.500000 0
0.700000 1.500000 0
0.800000 1.500000 0
0.900000 1.500000 0
1.000000 1.500000 0
1.100000 1.500000 0
1.200000 1.500000 0
1.300000 1.500000 0
1.400000 1.500000 0
1.500000 1.500000 0
1.600000 1.500000 0
1.700000 1.500000 0
1.800000 1.500000 0
1.900000 1.500000 0
2.000000 1.500000 0
0.000000 1.600000 0
0.100000 1.600000 0
0.200000 1.600000 0
0.300000 1.600000 0
0.400000 1.600000 0
0.500000 1.600000 0
0.600000 1.600000 0
0.700000 1.600000 0
0.800000 1.600000 0
0.900000 1.600000 0
1.000000 1.600000 0
1.100000 1.600000 0
1.200000 1.600000 0
1.300000 1.600000 0
1.400000 1.600000 0
1.500000 1.600000 0
1.600000 1.600000 0
1.700000 1.600000 0
1.800000 1.600000 0
1.900000 1.600000 0
2.000000 1.600000 0
0.000000 1.700000 0
0.100000 1.700000 0
0.200000 1.700000 0
0.300000 1.700000 0
0.400000 1.700000 0
0.500000 1.700000 0
0.600000 1.700000 0
0.700000 1.700000 0
0.800000 1.700000 0
0.900000 1.700000 0
1.000000 1.700000 0
1.100000 1.700000 0
1.200000 1.700000 0
1.300000 1.700000 0
1.400000 1.700000 0
1.500000 1.700000 0
1.600000 1.700000 0
1.700000 1.700000 0
1.800000 1.700000 0
1.900000 1.700000 0
2.000000 1.700000 0
0.000000 1.800000 0
0.100000 1.800000 0
0.200000 1.800000 0
0.300000 1.800000 0
0.400000 1.800000 0
0.500000 1.800000 0
0.600000 1.800000 0
0.700000 1.800000 0
0.800000 1.800000 0
0.900000 1.800000 0
1.000000 1.800000 0
1.100000 1.800000 0
1.200000 1.800000 0
1.300000 1.800000 0
1.400000 1.800000 0
1.500000 1.800000 0
1.600000 1.800000 0
1.700000 1.800000 0
1.800000 1.800000 0
1.900000 1.800000 0
2.000000 1.800000 0
0.000000 1.900000 0
0.100000 1.900000 0
0.200000 1.900000 0
0.300000 1.900000 0
0.400000 1.900000 0
0.500000 1.900000 0
0.600000 1.900000 0
0.700000 1.900000 0
0.800000 1.900000 0
0.900000 1.900000 0
1.000000 1.900000 0
1.100000 1.900000 0
1.200000 1.900000 0
1.300000 1.900000 0
1.400000 1.900000 0
1.500000 1.900000 0
1.600000 1.900000 0
1.700000 1.900000 0
1.800000 1.900000 0
1.900000 1.900000 0
2.000000 1.900000 0
0.000000 2.000000 0
0.100000 2.000000 0
0.200000 2.000000 0
0.300000 2.000000 0
0.400000 2.000000 0
0.500000 2.000000 0
0.600000 2.000000 0
0.700000 2.000000 0
0.800000 2.000000 0
0.900000 2.000000 0
1.000000 2.000000 0
1.100000 2.000000 0
1.200000 2.000000 0
1.300000 2.000000 0
1.400000 2.000000 0
1.500000 2.000000 0
1.600000 2.000000 0
1.700000 2.000000 0
1.800000 2.000000 0
1.900000 2.000000 0
2.000000 2.000000 0
POINT_DATA 441 

VECTORS velocity float
0.000000 0.000000 0
0.000009 0.000000 0
0.000009 0.000000 0
0.000002 0.000000 0
-0.000004 0.000000 0
-0.000006 0.000000 0
-0.000005 0.000000 0
-0.000002 0.000000 0
0.000001 0.000000 0
0.000003 0.000000 0
0.000003 0.000000 0
0.000002 0.000000 0
0.000000 0.000000 0
-0.000001 0.000000 0
-0.000001 0.000000 0
-0.000001 0.000000 0
-0.000000 0.000000 0
-0.000000 0.000000 0
-0.000000 0.000000 0
-0.000000 0.000000 0
-0.000000 0.000000 0
0.000000 0.000012 0
0.000011 0.000007 0
0.000015 0.000001 0
0.000015 -0.000010 0
0.000013 -0.000015 0
0.000012 -0.000012 0
0.000009 -0.000003 0
0.000006 0.000008 0
-0.000001 0.000015 0
-0.000010 0.000018 0
-0.000021 0.000016 0
-0.000031 0.000011 0
-0.000040 0.000007 0
-0.000046 0.000003 0
-0.000050 0.000001 0
-0.000052 -0.000000 0
-0.000053 -0.000000 0
-0.000053 -0.000000 0
-0.000052 -0.000000 0
-0.000052 -0.000000 0
-0.000052 -0.000000 0
0.000000 0.000002 0
0.000005 -0.000009 0
0.000008 -0.000017 0
0.000013 -0.000015 0
0.000018 -0.000006 0
0.000021 0.000006 0
0.000018 0.000016 0
0.000011 0.000023 0
0.000000 0.000024 0
-0.000013 0.000023 0
-0.000025 0.000019 0
-0.000036 0.000015 0
-0.000045 0.000011 0
-0.000050 0.000008 0
-0.000054 0.000005 0
-0.000055 0.000003 0
-0.000056 0.000001 0
-0.000056 0.000000 0
-0.000055 -0.000000 0
-0.000054 -0.000000 0
-0.000054 -0.000001 0
0.000000 -0.000005 0
0.000000 -0.000022 0
0.000010 -0.000018 0
0.000020 -0.000007 0
0.000027 0.000003 0
0.000028 0.000012 0
0.000023 0.000018 0
0.000013 0.000023 0
0.000000 0.000027 0
-0.000014 0.000029 0
-0.000027 0.000029 0
-0.000039 0.000026 0
-0.000047 0.000021 0
-0.000053 0.000015 0
-0.000056 0.000009 0
-0.000057 0.000004 0
-0.000057 0.000001 0
-0.000056 -0.000001 0
-0.000055 -0.000001 0
-0.000054 -0.000001 0
-0.000054 -0.000001 0
0.000000 -0.000001 0
0.000005 -0.000025 0
0.000017 -0.000017 0
0.000027 -0.000010 0
0.000032 -0.000003 0
0.000032 0.000005 0
0.000027 0.000016 0
0.000018 0.000028 0
0.000004 0.000040 0
-0.000012 0.000047 0
-0.000028 0.000047 0
-0.000042 0.000041 0
-0.000052 0.000031 0
-0.000058 0.000020 0
-0.000060 0.000010 0
-0.000060 0.000003 0
-0.000058 -0.000001 0
-0.000056 -0.000003 0
-0.000054 -0.000003 0
-0.000053 -0.000002 0
-0.000052 -0.000001 0
0.000000 0.000003 0
0.000010 -0.000030 0
0.000020 -0.000028 0
0.000029 -0.000023 0
0.000036 -0.000014 0
0.000039 0.000002 0
0.000037 0.000023 0
0.000028 0.000044 0
0.000012 0.000061 0
-0.000009 0.000069 0
-0.000030 0.000066 0
-0.000047 0.000054 0
-0.000059 0.000038 0
-0.000064 0.000022 0
-0.000064 0.000009 0
-0.000061 0.000001 0
-0.000058 -0.000004 0
-0.000054 -0.000005 0
-0.000052 -0.000005 0
-0.000050 -0.000003 0
-0.000050 -0.000001 0
0.000000 0.000001 0
0.000010 -0.000043 0
0.000021 -0.000043 0
0.000031 -0.000034 0
0.000042 -0.000018 0
0.000048 0.000005 0
0.000048 0.000033 0
0.000038 0.000061 0
0.000018 0.000082 0
-0.000008 0.000091 0
-0.000034 0.000085 0
-0.000054 0.000067 0
-0.000065 0.000045 0
-0.000068 0.000024 0
-0.000066 0.000008 0
-0.000062 -0.000003 0
-0.000056 -0.000008 0
-0.000052 -0.000009 0
-0.000048 -0.000007 0
-0.000046 -0.000004 0
-0.000046 -0.000002 0
0.000000 -0.000002 0
0.000009 -0.000057 0
0.000021 -0.000054 0
0.000035 -0.000042 0
0.000047 -0.000023 0
0.000055 0.000005 0
0.000056 0.000038 0
0.000045 0.000074 0
0.000023 0.000104 0
-0.000007 0.000116 0
-0.000036 0.000108 0
-0.000058 0.000083 0
-0.000069 0.000052 0
-0.000070 0.000024 0
-0.000065 0.000004 0
-0.000059 -0.000008 0
-0.000052 -0.000013 0
-0.000046 -0.000013 0
-0.000042 -0.000010 0
-0.000040 -0.000005 0
-0.000040 -0.000002 0
0.000000 -0.000001 0
0.000010 -0.000068 0
0.000022 -0.000064 0
0.000034 -0.000053 0
0.000046 -0.000033 0
0.000055 -0.000003 0
0.000057 0.000039 0
0.000048 0.000088 0
0.000026 0.000130 0
-0.000004 0.000148 0
-0.000035 0.000136 0
-0.000057 0.000101 0
-0.000066 0.000058 0
-0.000065 0.000022 0
-0.000059 -0.000003 0
-0.000051 -0.000016 0
-0.000044 -0.000020 0
-0.000038 -0.000018 0
-0.000034 -0.000013 0
-0.000032 -0.000006 0
-0.000032 -0.000002 0
0.000000 0.000001 0
0.000009 -0.000077 0
0.000017 -0.000076 0
0.000027 -0.000066 0
0.000036 -0.000046 0
0.000045 -0.000010 0
0.000048 0.000042 0
0.000043 0.000104 0
0.000025 0.000157 0
-0.000002 0.000180 0
-0.000029 0.000162 0
-0.000047 0.000115 0
-0.000053 0.000061 0
-0.000051 0.000017 0
-0.000045 -0.000011 0
-0.000038 -0.000024 0
-0.000031 -0.000027 0
-0.000026 -0.000023 0
-0.000023 -0.000016 0
-0.000021 -0.000007 0
-0.000021 -0.000002 0
0.000000 0.000000 0
0.000005 -0.000084 0
0.000009 -0.000085 0
0.000014 -0.000075 0
0.000020 -0.000053 0
0.000026 -0.000014 0
0.000029 0.000044 0
0.000026 0.000115 0
0.000016 0.000176 0
0.000000 0.000202 0
-0.000016 0.000181 0
-0.000026 0.000124 0
-0.000029 0.000062 0
-0.000027 0.000013 0
-0.000023 -0.000017 0
-0.000018 -0.000030 0
-0.000014 -0.000031 0
-0.000011 -0.000026 0
-0.000010 -0.000018 0
-0.000009 -0.000008 0
-0.000009 -0.000002 0
0.000000 -0.000001 0
0.000000 -0.000088 0
-0.000001 -0.000088 0
-0.000001 -0.000077 0
-0.000000 -0.000055 0
-0.000000 -0.000016 0
0.000000 0.000044 0
0.000001 0.000117 0
0.000001 0.000182 0
0.000002 0.000210 0
0.000003 0.000187 0
0.000004 0.000128 0
0.000004 0.000062 0
0.000004 0.000011 0
0.000005 -0.000019 0
0.000005 -0.000032 0
0.000005 -0.000033 0
0.000005 -0.000028 0
0.000005 -0.000019 0
0.000005 -0.000008 0
0.000005 -0.000002 0
0.000000 -0.000001 0
-0.000004 -0.000085 0
-0.000010 -0.000084 0
-0.000015 -0.000073 0
-0.000021 -0.000052 0
-0.000026 -0.000014 0
-0.000028 0.000043 0
-0.000024 0.000112 0
-0.000013 0.000174 0
0.000004 0.000200 0
0.000021 0.000179 0
0.000033 0.000124 0
0.000037 0.000062 0
0.000035 0.000013 0
0.000032 -0.000017 0
0.000028 -0.000030 0
0.000024 -0.000032 0
0.000022 -0.000027 0
0.000020 -0.000018 0
0.000019 -0.000008 0
0.000019 -0.000002 0
0.000000 -0.000000 0
-0.000007 -0.000077 0
-0.000017 -0.000077 0
-0.000027 -0.000066 0
-0.000037 -0.000045 0
-0.000045 -0.000010 0
-0.000048 0.000041 0
-0.000041 0.000102 0
-0.000021 0.000154 0
0.000006 0.000176 0
0.000034 0.000159 0
0.000053 0.000113 0
0.000060 0.000059 0
0.000059 0.000016 0
0.000054 -0.000011 0
0.000047 -0.000024 0
0.000041 -0.000027 0
0.000036 -0.000024 0
0.000033 -0.000016 0
0.000032 -0.000007 0
0.000032 -0.000002 0
0.000000 -0.000000 0
-0.000010 -0.000067 0
-0.000022 -0.000066 0
-0.000034 -0.000055 0
-0.000046 -0.000035 0
-0.000054 -0.000004 0
-0.000055 0.000039 0
-0.000046 0.000087 0
-0.000024 0.000127 0
0.000008 0.000144 0
0.000040 0.000132 0
0.000062 0.000097 0
0.000073 0.000055 0
0.000073 0.000019 0
0.000068 -0.000005 0
0.000061 -0.000017 0
0.000054 -0.000021 0
0.000049 -0.000019 0
0.000045 -0.000013 0
0.000043 -0.000006 0
0.000043 -0.000002 0
0.000000 -0.000000 0
-0.000011 -0.000055 0
-0.000024 -0.000053 0
-0.000036 -0.000043 0
-0.000047 -0.000025 0
-0.000054 0.000001 0
-0.000054 0.000034 0
-0.000043 0.000070 0
-0.000021 0.000100 0
0.000009 0.000112 0
0.000040 0.000104 0
0.000063 0.000079 0
0.000075 0.000049 0
0.000078 0.000021 0
0.000075 0.000001 0
0.000069 -0.000011 0
0.000063 -0.000015 0
0.000058 -0.000014 0
0.000054 -0.000011 0
0.000052 -0.000005 0
0.000052 -0.000002 0
0.000000 -0.000000 0
-0.000011 -0.000043 0
-0.000024 -0.000041 0
-0.000035 -0.000032 0
-0.000045 -0.000017 0
-0.000050 0.000003 0
-0.000048 0.000028 0
-0.000037 0.000054 0
-0.000016 0.000074 0
0.000011 0.000083 0
0.000038 0.000078 0
0.000059 0.000062 0
0.000072 0.000040 0
0.000077 0.000020 0
0.000077 0.000004 0
0.000073 -0.000005 0
0.000068 -0.000010 0
0.000064 -0.000010 0
0.000061 -0.000008 0
0.000059 -0.000004 0
0.000058 -0.000001 0
0.000000 -0.000000 0
-0.000011 -0.000031 0
-0.000022 -0.000029 0
-0.000033 -0.000022 0
-0.000041 -0.000011 0
-0.000044 0.000004 0
-0.000041 0.000021 0
-0.000030 0.000039 0
-0.000011 0.000053 0
0.000012 0.000059 0
0.000035 0.000056 0
0.000055 0.000045 0
0.000068 0.000031 0
0.000074 0.000017 0
0.000076 0.000005 0
0.000074 -0.000002 0
0.000071 -0.000006 0
0.000068 -0.000007 0
0.000065 -0.000005 0
0.000064 -0.000003 0
0.000063 -0.000001 0
0.000000 -0.000000 0
-0.000011 -0.000020 0
-0.000021 -0.000019 0
-0.000031 -0.000014 0
-0.000037 -0.000007 0
-0.000039 0.000003 0
-0.000035 0.000014 0
-0.000025 0.000025 0
-0.000008 0.000033 0
0.000012 0.000037 0
0.000033 0.000035 0
0.000051 0.000029 0
0.000064 0.000020 0
0.000072 0.000012 0
0.000075 0.000004 0
0.000075 -0.000001 0
0.000073 -0.000003 0
0.000070 -0.000004 0
0.000068 -0.000003 0
0.000067 -0.000002 0
0.000066 -0.000001 0
0.000000 -0.000000 0
-0.000010 -0.000010 0
-0.000020 -0.000009 0
-0.000029 -0.000007 0
-0.000034 -0.000003 0
-0.000036 0.000002 0
-0.000031 0.000007 0
-0.000022 0.000012 0
-0.000006 0.000016 0
0.000012 0.000018 0
0.000031 0.000017 0
0.000047 0.000014 0
0.000060 0.000010 0
0.000068 0.000006 0
0.000071 0.000002 0
0.000072 -0.000000 0
0.000071 -0.000002 0
0.000069 -0.000002 0
0.000067 -0.000002 0
0.000065 -0.000001 0
0.000065 -0.000000 0
0.000000 0.000000 0
-0.000000 0.000000 0
0.000000 0.000000 0
0.000000 0.000000 0
-0.000000 0.000000 0
-0.000000 0.000000 0
-0.000000 0.000000 0
-0.000000 0.000000 0
-0.000000 0.000000 0
0.000000 0.000000 0
0.000000 0.000000 0
0.000000 0.000000 0
0.000000 0.000000 0
0.000000 0.000000 0
0.000000 0.000000 0
0.000000 0.000000 0
0.000000 0.000000 0
0.000000 0.000000 0
0.000000 0.000000 0
0.000000 0.000000 0
0.000000 0.000000 0

CELL_DATA 400 
SCALARS pressure float 1 
LOOKUP_TABLE default 
0.242655
0.242619
0.242585
0.242576
0.242591
0.242616
0.242637
0.242644
0.242640
0.242628
0.242617
0.242610
0.242609
0.242611
0.242615
0.242618
0.242620
0.242621
0.242622
0.242622
0.219608
0.219600
0.219610
0.219626
0.219636
0.219635
0.219628
0.219617
0.219610
0.219607
0.219609
0.219613
0.219617
0.219620
0.219621
0.219621
0.219621
0.219621
0.219621
0.219622
0.196599
0.196625
0.196641
0.196639
0.196625
0.196609
0.196599
0.196598
0.196604
0.196613
0.196620
0.196623
0.196624
0.196622
0.196620
0.196619
0.196619
0.196620
0.196621
0.196621
0.173620
0.173636
0.173632
0.173617
0.173603
0.173597
0.173601
0.173610
0.173619
0.173624
0.173625
0.173623
0.173620
0.173618
0.173617
0.173618
0.173619
0.173620
0.173621
0.173621
0.150625
0.150622
0.150614
0.150609
0.150609
0.150613
0.150618
0.150622
0.150622
0.150620
0.150618
0.150616
0.150616
0.150617
0.150618
0.150619
0.150620
0.150621
0.150621
0.150622
0.127614
0.127613
0.127617
0.127622
0.127625
0.127624
0.127620
0.127616
0.127613
0.127612
0.127614
0.127616
0.127618
0.127619
0.127620
0.127620
0.127621
0.127621
0.127621
0.127622
0.104610
0.104618
0.104627
0.104629
0.104625
0.104618
0.104612
0.104609
0.104610
0.104613
0.104617
0.104619
0.104620
0.104621
0.104620
0.104620
0.104620
0.104621
0.104621
0.104622
0.081617
0.081623
0.081625
0.081623
0.081618
0.081614
0.081612
0.081614
0.081616
0.081618
0.081619
0.081620
0.081620
0.081620
0.081620
0.081620
0.081621
0.081621
0.081622
0.081622
0.058622
0.058620
0.058619
0.058619
0.058619
0.058619
0.058620
0.058620
0.058619
0.058618
0.058618
0.058618
0.058619
0.058620
0.058620
0.058621
0.058621
0.058622
0.058622
0.058622
0.035620
0.035617
0.035620
0.035623
0.035625
0.035625
0.035623
0.035620
0.035618
0.035618
0.035618
0.035619
0.035620
0.035621
0.035622
0.035622
0.035622
0.035622
0.035622
0.035622
0.012619
0.012620
0.012624
0.012626
0.012626
0.012624
0.012622
0.012620
0.012619
0.012620
0.012621
0.012622
0.012623
0.012623
0.012623
0.012623
0.012622
0.012622
0.012622
0.012622
-0.010378
-0.010377
-0.010376
-0.010375
-0.010376
-0.010376
-0.010376
-0.010377
-0.010376
-0.010376
-0.010376
-0.010376
-0.010376
-0.010376
-0.010377
-0.010377
-0.010377
-0.010377
-0.010377
-0.010377
-0.033375
-0.033376
-0.033377
-0.033376
-0.033375
-0.033373
-0.033373
-0.033373
-0.033373
-0.033374
-0.033375
-0.033375
-0.033375
-0.033376
-0.033376
-0.033376
-0.033376
-0.033377
-0.033377
-0.033377
-0.056374
-0.056376
-0.056376
-0.056374
-0.056372
-0.056371
-0.056371
-0.056372
-0.056372
-0.056373
-0.056373
-0.056374
-0.056374
-0.056374
-0.056375
-0.056375
-0.056376
-0.056376
-0.056377
-0.056377
-0.079374
-0.079375
-0.079374
-0.079373
-0.079372
-0.079371
-0.079371
-0.079371
-0.079371
-0.079372
-0.079372
-0.079372
-0.079373
-0.079373
-0.079374
-0.079375
-0.079375
-0.079376
-0.079376
-0.079377
-0.102373
-0.102373
-0.102373
-0.102373
-0.102372
-0.102371
-0.102371
-0.102370
-0.102370
-0.102371
-0.102371
-0.102372
-0.102372
-0.102373
-0.102374
-0.102374
-0.102375
-0.102376
-0.102376
-0.102377
-0.125372
-0.125373
-0.125373
-0.125373
-0.125372
-0.125371
-0.125370
-0.125370
-0.125370
-0.125370
-0.125371
-0.125371
-0.125372
-0.125373
-0.125373
-0.125374
-0.125375
-0.125375
-0.125376
-0.125377
-0.148372
-0.148372
-0.148373
-0.148372
-0.148371
-0.148370
-0.148370
-0.148369
-0.148370
-0.148370
-0.148370
-0.148371
-0.148372
-0.148372
-0.148373
-0.148374
-0.148374
-0.148375
-0.148376
-0.148377
-0.171372
-0.171372
-0.171372
-0.171372
-0.171371
-0.171370
-0.171370
-0.171369
-0.171369
-0.171370
-0.171370
-0.171371
-0.171371
-0.171372
-0.171373
-0.171373
-0.171374
-0.171375
-0.171376
-0.171377
-0.194371
-0.194371
-0.194372
-0.194372
-0.194371
-0.194370
-0.194370
-0.194369
-0.194369
-0.194369
-0.194370
-0.194370
-0.194371
-0.194372
-0.194373
-0.194373
-0.194374
-0.194375
-0.194376
-0.194376

SCALARS temperature float 1 
LOOKUP_TABLE default 
0.000006
0.000050
0.000139
0.000267
0.000427
0.000604
0.000775
0.000917
0.001008
0.001034
0.000995
0.000901
0.000772
0.000630
0.000494
0.000376
0.000283
0.000216
0.000174
0.000153
0.000007
0.000059
0.000164
0.000316
0.000507
0.000719
0.000925
0.001096
0.001204
0.001234
0.001184
0.001068
0.000911
0.000739
0.000576
0.000436
0.000326
0.000248
0.000198
0.000175
0.000009
0.000079
0.000218
0.000424
0.000683
0.000974
0.001259
0.001497
0.001646
0.001683
0.001605
0.001437
0.001213
0.000974
0.000750
0.000561
0.000416
0.000313
0.000249
0.000218
0.000013
0.000112
0.000312
0.000610
0.000993
0.001428
0.001860
0.002223
0.002448
0.002495
0.002363
0.002091
0.001741
0.001376
0.001043
0.000769
0.000561
0.000417
0.000329
0.000287
0.000019
0.000164
0.000458
0.000904
0.001488
0.002165
0.002852
0.003433
0.003792
0.003853
0.003616
0.003156
0.002582
0.002002
0.001488
0.001077
0.000773
0.000567
0.000441
0.000383
0.000028
0.000237
0.000668
0.001333
0.002224
0.003285
0.004388
0.005339
0.005923
0.006000
0.005572
0.004781
0.003832
0.002906
0.002114
0.001499
0.001057
0.000763
0.000588
0.000506
0.000039
0.000332
0.000944
0.001910
0.003239
0.004871
0.006621
0.008166
0.009120
0.009211
0.008449
0.007109
0.005565
0.004117
0.002925
0.002030
0.001405
0.000999
0.000761
0.000652
0.000052
0.000443
0.001273
0.002612
0.004510
0.006922
0.009606
0.012047
0.013571
0.013672
0.012367
0.010179
0.007763
0.005594
0.003879
0.002635
0.001793
0.001257
0.000948
0.000807
0.000065
0.000558
0.001616
0.003359
0.005904
0.009254
0.013125
0.016769
0.019080
0.019180
0.017104
0.013760
0.010222
0.007180
0.004867
0.003244
0.002173
0.001506
0.001126
0.000955
0.000076
0.000654
0.001908
0.004008
0.007148
0.011406
0.016493
0.021429
0.024612
0.024706
0.021763
0.017165
0.012471
0.008577
0.005711
0.003753
0.002486
0.001709
0.001271
0.001075
0.000082
0.000711
0.002079
0.004392
0.007894
0.012724
0.018605
0.024416
0.028201
0.028292
0.024751
0.019304
0.013851
0.009419
0.006214
0.004055
0.002673
0.001831
0.001358
0.001147
0.000083
0.000713
0.002084
0.004398
0.007895
0.012708
0.018557
0.024332
0.028096
0.028196
0.024689
0.019284
0.013862
0.009445
0.006244
0.004082
0.002695
0.001849
0.001374
0.001161
0.000077
0.000662
0.001926
0.004033
0.007167
0.011393
0.016416
0.021279
0.024420
0.024536
0.021669
0.017162
0.012533
0.008669
0.005806
0.003837
0.002556
0.001766
0.001318
0.001117
0.000067
0.000573
0.001653
0.003420
0.005979
0.009318
0.013149
0.016742
0.019029
0.019156
0.017150
0.013883
0.010396
0.007368
0.005041
0.003391
0.002292
0.001602
0.001205
0.001026
0.000055
0.000468
0.001337
0.002727
0.004676
0.007126
0.009826
0.012273
0.013807
0.013935
0.012670
0.010512
0.008100
0.005906
0.004146
0.002852
0.001963
0.001392
0.001058
0.000906
0.000043
0.000367
0.001040
0.002089
0.003514
0.005242
0.007075
0.008685
0.009685
0.009805
0.009047
0.007685
0.006089
0.004568
0.003293
0.002319
0.001628
0.001173
0.000903
0.000778
0.000033
0.000284
0.000796
0.001578
0.002611
0.003823
0.005070
0.006139
0.006801
0.006907
0.006456
0.005597
0.004545
0.003498
0.002585
0.001862
0.001333
0.000976
0.000760
0.000659
0.000026
0.000222
0.000619
0.001214
0.001982
0.002862
0.003745
0.004490
0.004954
0.005046
0.004766
0.004198
0.003477
0.002733
0.002062
0.001514
0.001103
0.000819
0.000644
0.000562
0.000021
0.000183
0.000507
0.000987
0.001597
0.002284
0.002963
0.003530
0.003885
0.003968
0.003775
0.003363
0.002824
0.002254
0.001726
0.001285
0.000948
0.000712
0.000565
0.000495
0.000019
0.000164
0.000453
0.000879
0.001416
0.002015
0.002604
0.003093
0.003401
0.003478
0.003322
0.002977
0.002518
0.002025
0.001563
0.001173
0.000872
0.000658
0.000525
0.000461


SCALARS Species_1 float 1 
LOOKUP_TABLE default 
0.000554
0.001671
0.002810
0.003977
0.005168
0.006370
0.007556
0.008693
0.009741
0.010660
0.011418
0.011992
0.012375
0.012574
0.012618
0.012544
0.012401
0.012239
0.012103
0.012026
0.000563
0.001697
0.002853
0.004038
0.005246
0.006464
0.007666
0.008817
0.009877
0.010808
0.011576
0.012157
0.012545
0.012748
0.012794
0.012721
0.012578
0.012416
0.012279
0.012202
0.000578
0.001744
0.002931
0.004146
0.005385
0.006633
0.007864
0.009042
0.010128
0.011080
0.011865
0.012460
0.012857
0.013066
0.013114
0.013041
0.012896
0.012731
0.012592
0.012514
0.000598
0.001803
0.003030
0.004285
0.005564
0.006851
0.008120
0.009334
0.010453
0.011433
0.012242
0.012854
0.013263
0.013478
0.013528
0.013454
0.013306
0.013137
0.012995
0.012915
0.000619
0.001867
0.003136
0.004433
0.005755
0.007085
0.008395
0.009647
0.010800
0.011812
0.012645
0.013276
0.013698
0.013920
0.013972
0.013896
0.013744
0.013571
0.013425
0.013343
0.000639
0.001924
0.003232
0.004568
0.005928
0.007296
0.008642
0.009930
0.011115
0.012153
0.013009
0.013657
0.014090
0.014318
0.014372
0.014295
0.014140
0.013963
0.013814
0.013730
0.000653
0.001966
0.003302
0.004665
0.006053
0.007448
0.008821
0.010133
0.011340
0.012398
0.013269
0.013929
0.014370
0.014603
0.014659
0.014581
0.014424
0.014245
0.014094
0.014008
0.000659
0.001984
0.003331
0.004706
0.006105
0.007511
0.008893
0.010214
0.011429
0.012494
0.013371
0.014035
0.014479
0.014715
0.014771
0.014694
0.014537
0.014358
0.014207
0.014121
0.000655
0.001972
0.003310
0.004677
0.006066
0.007461
0.008833
0.010144
0.011349
0.012405
0.013275
0.013935
0.014376
0.014610
0.014667
0.014591
0.014437
0.014261
0.014111
0.014027
0.000640
0.001927
0.003235
0.004569
0.005926
0.007288
0.008628
0.009907
0.011083
0.012114
0.012963
0.013607
0.014038
0.014268
0.014325
0.014253
0.014104
0.013933
0.013788
0.013706
0.000614
0.001850
0.003105
0.004386
0.005687
0.006994
0.008279
0.009506
0.010634
0.011623
0.012438
0.013055
0.013470
0.013691
0.013748
0.013680
0.013540
0.013377
0.013239
0.013161
0.000579
0.001743
0.002927
0.004134
0.005361
0.006592
0.007803
0.008960
0.010023
0.010954
0.011723
0.012306
0.012697
0.012908
0.012963
0.012901
0.012770
0.012619
0.012490
0.012417
0.000536
0.001615
0.002711
0.003829
0.004966
0.006106
0.007228
0.008299
0.009285
0.010148
0.010860
0.011402
0.011766
0.011963
0.012016
0.011961
0.011842
0.011703
0.011585
0.011518
0.000489
0.001472
0.002472
0.003491
0.004528
0.005568
0.006592
0.007569
0.008468
0.009256
0.009907
0.010403
0.010737
0.010919
0.010969
0.010921
0.010814
0.010689
0.010582
0.010522
0.000440
0.001325
0.002225
0.003144
0.004077
0.005014
0.005936
0.006817
0.007628
0.008339
0.008927
0.009375
0.009678
0.009844
0.009892
0.009851
0.009756
0.009645
0.009550
0.009496
0.000393
0.001184
0.001988
0.002809
0.003644
0.004482
0.005307
0.006095
0.006821
0.007459
0.007986
0.008389
0.008662
0.008813
0.008858
0.008823
0.008740
0.008642
0.008558
0.008510
0.000351
0.001058
0.001777
0.002511
0.003257
0.004007
0.004746
0.005452
0.006102
0.006674
0.007147
0.007510
0.007756
0.007893
0.007936
0.007907
0.007834
0.007747
0.007673
0.007630
0.000317
0.000955
0.001605
0.002268
0.002944
0.003622
0.004290
0.004929
0.005518
0.006036
0.006466
0.006796
0.007021
0.007147
0.007187
0.007162
0.007098
0.007020
0.006953
0.006915
0.000293
0.000883
0.001484
0.002098
0.002723
0.003351
0.003969
0.004561
0.005107
0.005588
0.005987
0.006294
0.006504
0.006621
0.006660
0.006638
0.006579
0.006508
0.006447
0.006412
0.000281
0.000846
0.001422
0.002010
0.002609
0.003211
0.003804
0.004371
0.004895
0.005357
0.005740
0.006035
0.006237
0.006351
0.006388
0.006368
0.006312
0.006244
0.006185
0.006152


SCALARS Species_2 float 1 
LOOKUP_TABLE default 
0.000297
0.000874
0.001407
0.001867
0.002236
0.002500
0.002655
0.002703
0.002655
0.002526
0.002334
0.002100
0.001843
0.001584
0.001336
0.001114
0.000927
0.000781
0.000682
0.000631
0.000318
0.000937
0.001507
0.002000
0.002395
0.002678
0.002844
0.002895
0.002844
0.002706
0.002500
0.002250
0.001976
0.001698
0.001434
0.001196
0.000995
0.000839
0.000733
0.000679
0.000359
0.001058
0.001702
0.002259
0.002704
0.003023
0.003209
0.003268
0.003209
0.003053
0.002821
0.002539
0.002230
0.001917
0.001619
0.001350
0.001124
0.000949
0.000829
0.000768