# vtk DataFile Version 2.0
generated by CFD-lab course output (written by Tobias Neckel) 
ASCII

DATASET STRUCTURED_GRID
DIMENSIONS  21 21 1 
POINTS 441 float

0.000000 0.000000 0
0.100000 0.000000 0
0.200000 0.000000 0
0.300000 0.000000 0
0.400000 0.000000 0
0.500000 0.000000 0
0.600000 0.000000 0
0.700000 0.000000 0
0.800000 0.000000 0
0.900000 0.000000 0
1.000000 0.000000 0
1.100000 0.000000 0
1.200000 0.000000 0
1.300000 0.000000 0
1.400000 0.000000 0
1.500000 0.000000 0
1.600000 0.000000 0
1.700000 0.000000 0
1.800000 0.000000 0
1.900000 0.000000 0
2.000000 0.000000 0
0.000000 0.100000 0
0.100000 0.100000 0
0.200000 0.100000 0
0.300000 0.100000 0
0.400000 0.100000 0
0.500000 0.100000 0
0.600000 0.100000 0
0.700000 0.100000 0
0.800000 0.100000 0
0.900000 0.100000 0
1.000000 0.100000 0
1.100000 0.100000 0
1.200000 0.100000 0
1.300000 0.100000 0
1.400000 0.100000 0
1.500000 0.100000 0
1.600000 0.100000 0
1.700000 0.100000 0
1.800000 0.100000 0
1.900000 0.100000 0
2.000000 0.100000 0
0.000000 0.200000 0
0.100000 0.200000 0
0.200000 0.200000 0
0.300000 0.200000 0
0.400000 0.200000 0
0.500000 0.200000 0
0.600000 0.200000 0
0.700000 0.200000 0
0.800000 0.200000 0
0.900000 0.200000 0
1.000000 0.200000 0
1.100000 0.200000 0
1.200000 0.200000 0
1.300000 0.200000 0
1.400000 0.200000 0
1.500000 0.200000 0
1.600000 0.200000 0
1.700000 0.200000 0
1.800000 0.200000 0
1.900000 0.200000 0
2.000000 0.200000 0
0.000000 0.300000 0
0.100000 0.300000 0
0.200000 0.300000 0
0.300000 0.300000 0
0.400000 0.300000 0
0.500000 0.300000 0
0.600000 0.300000 0
0.700000 0.300000 0
0.800000 0.300000 0
0.900000 0.300000 0
1.000000 0.300000 0
1.100000 0.300000 0
1.200000 0.300000 0
1.300000 0.300000 0
1.400000 0.300000 0
1.500000 0.300000 0
1.600000 0.300000 0
1.700000 0.300000 0
1.800000 0.300000 0
1.900000 0.300000 0
2.000000 0.300000 0
0.000000 0.400000 0
0.100000 0.400000 0
0.200000 0.400000 0
0.300000 0.400000 0
0.400000 0.400000 0
0.500000 0.400000 0
0.600000 0.400000 0
0.700000 0.400000 0
0.800000 0.400000 0
0.900000 0.400000 0
1.000000 0.400000 0
1.100000 0.400000 0
1.200000 0.400000 0
1.300000 0.400000 0
1.400000 0.400000 0
1.500000 0.400000 0
1.600000 0.400000 0
1.700000 0.400000 0
1.800000 0.400000 0
1.900000 0.400000 0
2.000000 0.400000 0
0.000000 0.500000 0
0.100000 0.500000 0
0.200000 0.500000 0
0.300000 0.500000 0
0.400000 0.500000 0
0.500000 0.500000 0
0.600000 0.500000 0
0.700000 0.500000 0
0.800000 0.500000 0
0.900000 0.500000 0
1.000000 0.500000 0
1.100000 0.500000 0
1.200000 0.500000 0
1.300000 0.500000 0
1.400000 0.500000 0
1.500000 0.500000 0
1.600000 0.500000 0
1.700000 0.500000 0
1.800000 0.500000 0
1.900000 0.500000 0
2.000000 0.500000 0
0.000000 0.600000 0
0.100000 0.600000 0
0.200000 0.600000 0
0.300000 0.600000 0
0.400000 0.600000 0
0.500000 0.600000 0
0.600000 0.600000 0
0.700000 0.600000 0
0.800000 0.600000 0
0.900000 0.600000 0
1.000000 0.600000 0
1.100000 0.600000 0
1.200000 0.600000 0
1.300000 0.600000 0
1.400000 0.600000 0
1.500000 0.600000 0
1.600000 0.600000 0
1.700000 0.600000 0
1.800000 0.600000 0
1.900000 0.600000 0
2.000000 0.600000 0
0.000000 0.700000 0
0.100000 0.700000 0
0.200000 0.700000 0
0.300000 0.700000 0
0.400000 0.700000 0
0.500000 0.700000 0
0.600000 0.700000 0
0.700000 0.700000 0
0.800000 0.700000 0
0.900000 0.700000 0
1.000000 0.700000 0
1.100000 0.700000 0
1.200000 0.700000 0
1.300000 0.700000 0
1.400000 0.700000 0
1.500000 0.700000 0
1.600000 0.700000 0
1.700000 0.700000 0
1.800000 0.700000 0
1.900000 0.700000 0
2.000000 0.700000 0
0.000000 0.800000 0
0.100000 0.800000 0
0.200000 0.800000 0
0.300000 0.800000 0
0.400000 0.800000 0
0.500000 0.800000 0
0.600000 0.800000 0
0.700000 0.800000 0
0.800000 0.800000 0
0.900000 0.800000 0
1.000000 0.800000 0
1.100000 0.800000 0
1.200000 0.800000 0
1.300000 0.800000 0
1.400000 0.800000 0
1.500000 0.800000 0
1.600000 0.800000 0
1.700000 0.800000 0
1.800000 0.800000 0
1.900000 0.800000 0
2.000000 0.800000 0
0.000000 0.900000 0
0.100000 0.900000 0
0.200000 0.900000 0
0.300000 0.900000 0
0.400000 0.900000 0
0.500000 0.900000 0
0.600000 0.900000 0
0.700000 0.900000 0
0.800000 0.900000 0
0.900000 0.900000 0
1.000000 0.900000 0
1.100000 0.900000 0
1.200000 0.900000 0
1.300000 0.900000 0
1.400000 0.900000 0
1.500000 0.900000 0
1.600000 0.900000 0
1.700000 0.900000 0
1.800000 0.900000 0
1.900000 0.900000 0
2.000000 0.900000 0
0.000000 1.000000 0
0.100000 1.000000 0
0.200000 1.000000 0
0.300000 1.000000 0
0.400000 1.000000 0
0.500000 1.000000 0
0.600000 1.000000 0
0.700000 1.000000 0
0.800000 1.000000 0
0.900000 1.000000 0
1.000000 1.000000 0
1.100000 1.000000 0
1.200000 1.000000 0
1.300000 1.000000 0
1.400000 1.000000 0
1.500000 1.000000 0
1.600000 1.000000 0
1.700000 1.000000 0
1.800000 1.000000 0
1.900000 1.000000 0
2.000000 1.000000 0
0.000000 1.100000 0
0.100000 1.100000 0
0.200000 1.100000 0
0.300000 1.100000 0
0.400000 1.100000 0
0.500000 1.100000 0
0.600000 1.100000 0
0.700000 1.100000 0
0.800000 1.100000 0
0.900000 1.100000 0
1.000000 1.100000 0
1.100000 1.100000 0
1.200000 1.100000 0
1.300000 1.100000 0
1.400000 1.100000 0
1.500000 1.100000 0
1.600000 1.100000 0
1.700000 1.100000 0
1.800000 1.100000 0
1.900000 1.100000 0
2.000000 1.100000 0
0.000000 1.200000 0
0.100000 1.200000 0
0.200000 1.200000 0
0.300000 1.200000 0
0.400000 1.200000 0
0.500000 1.200000 0
0.600000 1.200000 0
0.700000 1.200000 0
0.800000 1.200000 0
0.900000 1.200000 0
1.000000 1.200000 0
1.100000 1.200000 0
1.200000 1.200000 0
1.300000 1.200000 0
1.400000 1.200000 0
1.500000 1.200000 0
1.600000 1.200000 0
1.700000 1.200000 0
1.800000 1.200000 0
1.900000 1.200000 0
2.000000 1.200000 0
0.000000 1.300000 0
0.100000 1.300000 0
0.200000 1.300000 0
0.300000 1.300000 0
0.400000 1.300000 0
0.500000 1.300000 0
0.600000 1.300000 0
0.700000 1.300000 0
0.800000 1.300000 0
0.900000 1.300000 0
1.000000 1.300000 0
1.100000 1.300000 0
1.200000 1.300000 0
1.300000 1.300000 0
1.400000 1.300000 0
1.500000 1.300000 0
1.600000 1.300000 0
1.700000 1.300000 0
1.800000 1.300000 0
1.900000 1.300000 0
2.000000 1.300000 0
0.000000 1.400000 0
0.100000 1.400000 0
0.200000 1.400000 0
0.300000 1.400000 0
0.400000 1.400000 0
0.500000 1.400000 0
0.600000 1.400000 0
0.700000 1.400000 0
0.800000 1.400000 0
0.900000 1.400000 0
1.000000 1.400000 0
1.100000 1.400000 0
1.200000 1.400000 0
1.300000 1.400000 0
1.400000 1.400000 0
1.500000 1.400000 0
1.600000 1.400000 0
1.700000 1.400000 0
1.800000 1.400000 0
1.900000 1.400000 0
2.000000 1.400000 0
0.000000 1.500000 0
0.100000 1.500000 0
0.200000 1.500000 0
0.300000 1.500000 0
0.400000 1.500000 0
0.500000 1.500000 0
0.600000 1.500000 0
0.700000 1.500000 0
0.800000 1.500000 0
0.900000 1.500000 0
1.000000 1.500000 0
1.100000 1.500000 0
1.200000 1.500000 0
1.300000 1.500000 0
1.400000 1.500000 0
1.500000 1.500000 0
1.600000 1.500000 0
1.700000 1.500000 0
1.800000 1.500000 0
1.900000 1.500000 0
2.000000 1.500000 0
0.000000 1.600000 0
0.100000 1.600000 0
0.200000 1.600000 0
0.300000 1.600000 0
0.400000 1.600000 0
0.500000 1.600000 0
0.600000 1.600000 0
0.700000 1.600000 0
0.800000 1.600000 0
0.900000 1.600000 0
1.000000 1.600000 0
1.100000 1.600000 0
1.200000 1.600000 0
1.300000 1.600000 0
1.400000 1.600000 0
1.500000 1.600000 0
1.600000 1.600000 0
1.700000 1.600000 0
1.800000 1.600000 0
1.900000 1.600000 0
2.000000 1.600000 0
0.000000 1.700000 0
0.100000 1.700000 0
0.200000 1.700000 0
0.300000 1.700000 0
0.400000 1.700000 0
0.500000 1.700000 0
0.600000 1.700000 0
0.700000 1.700000 0
0.800000 1.700000 0
0.900000 1.700000 0
1.000000 1.700000 0
1.100000 1.700000 0
1.200000 1.700000 0
1.300000 1.700000 0
1.400000 1.700000 0
1.500000 1.700000 0
1.600000 1.700000 0
1.700000 1.700000 0
1.800000 1.700000 0
1.900000 1.700000 0
2.000000 1.700000 0
0.000000 1.800000 0
0.100000 1.800000 0
0.200000 1.800000 0
0.300000 1.800000 0
0.400000 1.800000 0
0.500000 1.800000 0
0.600000 1.800000 0
0.700000 1.800000 0
0.800000 1.800000 0
0.900000 1.800000 0
1.000000 1.800000 0
1.100000 1.800000 0
1.200000 1.800000 0
1.300000 1.800000 0
1.400000 1.800000 0
1.500000 1.800000 0
1.600000 1.800000 0
1.700000 1.800000 0
1.800000 1.800000 0
1.900000 1.800000 0
2.000000 1.800000 0
0.000000 1.900000 0
0.100000 1.900000 0
0.200000 1.900000 0
0.300000 1.900000 0
0.400000 1.900000 0
0.500000 1.900000 0
0.600000 1.900000 0
0.700000 1.900000 0
0.800000 1.900000 0
0.900000 1.900000 0
1.000000 1.900000 0
1.100000 1.900000 0
1.200000 1.900000 0
1.300000 1.900000 0
1.400000 1.900000 0
1.500000 1.900000 0
1.600000 1.900000 0
1.700000 1.900000 0
1.800000 1.900000 0
1.900000 1.900000 0
2.000000 1.900000 0
0.000000 2.000000 0
0.100000 2.000000 0
0.200000 2.000000 0
0.300000 2.000000 0
0.400000 2.000000 0
0.500000 2.000000 0
0.600000 2.000000 0
0.700000 2.000000 0
0.800000 2.000000 0
0.900000 2.000000 0
1.000000 2.000000 0
1.100000 2.000000 0
1.200000 2.000000 0
1.300000 2.000000 0
1.400000 2.000000 0
1.500000 2.000000 0
1.600000 2.000000 0
1.700000 2.000000 0
1.800000 2.000000 0
1.900000 2.000000 0
2.000000 2.000000 0
POINT_DATA 441 

VECTORS velocity float
0.000000 0.000000 0
-0.000001 0.000000 0
0.000008 0.000000 0
0.000008 0.000000 0
0.000003 0.000000 0
-0.000002 0.000000 0
-0.000006 0.000000 0
-0.000005 0.000000 0
-0.000003 0.000000 0
0.000000 0.000000 0
0.000002 0.000000 0
0.000002 0.000000 0
0.000002 0.000000 0
0.000001 0.000000 0
-0.000000 0.000000 0
-0.000001 0.000000 0
-0.000001 0.000000 0
-0.000000 0.000000 0
-0.000000 0.000000 0
-0.000000 0.000000 0
-0.000000 0.000000 0
0.000000 0.000005 0
0.000034 -0.000022 0
0.000070 -0.000025 0
0.000096 -0.000026 0
0.000111 -0.000021 0
0.000114 -0.000009 0
0.000104 0.000009 0
0.000081 0.000028 0
0.000045 0.000042 0
-0.000001 0.000048 0
-0.000050 0.000048 0
-0.000098 0.000042 0
-0.000139 0.000033 0
-0.000172 0.000024 0
-0.000194 0.000015 0
-0.000208 0.000009 0
-0.000215 0.000004 0
-0.000218 0.000001 0
-0.000217 -0.000001 0
-0.000216 -0.000001 0
-0.000216 -0.000000 0
0.000000 0.000008 0
0.000033 -0.000064 0
0.000069 -0.000069 0
0.000100 -0.000054 0
0.000122 -0.000027 0
0.000129 0.000007 0
0.000118 0.000041 0
0.000089 0.000069 0
0.000045 0.000088 0
-0.000009 0.000097 0
-0.000066 0.000096 0
-0.000120 0.000086 0
-0.000165 0.000071 0
-0.000200 0.000053 0
-0.000223 0.000036 0
-0.000237 0.000021 0
-0.000244 0.000010 0
-0.000246 0.000002 0
-0.000246 -0.000001 0
-0.000245 -0.000001 0
-0.000244 -0.000000 0
0.000000 -0.000002 0
0.000029 -0.000106 0
0.000071 -0.000102 0
0.000108 -0.000071 0
0.000133 -0.000031 0
0.000139 0.000014 0
0.000126 0.000059 0
0.000094 0.000100 0
0.000045 0.000131 0
-0.000013 0.000149 0
-0.000074 0.000150 0
-0.000130 0.000137 0
-0.000175 0.000113 0
-0.000209 0.000084 0
-0.000230 0.000056 0
-0.000242 0.000031 0
-0.000246 0.000013 0
-0.000246 0.000002 0
-0.000244 -0.000002 0
-0.000242 -0.000002 0
-0.000242 -0.000001 0
0.000000 -0.000005 0
0.000034 -0.000141 0
0.000080 -0.000134 0
0.000119 -0.000098 0
0.000145 -0.000049 0
0.000153 0.000010 0
0.000140 0.000075 0
0.000106 0.000137 0
0.000053 0.000186 0
-0.000012 0.000213 0
-0.000080 0.000214 0
-0.000141 0.000192 0
-0.000188 0.000154 0
-0.000220 0.000111 0
-0.000238 0.000070 0
-0.000245 0.000037 0
-0.000244 0.000013 0
-0.000241 -0.000000 0
-0.000236 -0.000005 0
-0.000234 -0.000003 0
-0.000233 -0.000001 0
0.000000 0.000001 0
0.000040 -0.000179 0
0.000087 -0.000178 0
0.000129 -0.000136 0
0.000159 -0.000073 0
0.000172 0.000008 0
0.000162 0.000098 0
0.000126 0.000185 0
0.000067 0.000253 0
-0.000009 0.000288 0
-0.000088 0.000284 0
-0.000155 0.000248 0
-0.000204 0.000193 0
-0.000233 0.000133 0
-0.000245 0.000079 0
-0.000246 0.000037 0
-0.000240 0.000009 0
-0.000232 -0.000006 0
-0.000225 -0.000009 0
-0.000221 -0.000005 0
-0.000221 -0.000001 0
0.000000 0.000002 0
0.000041 -0.000226 0
0.000091 -0.000228 0
0.000137 -0.000176 0
0.000173 -0.000096 0
0.000192 0.000008 0
0.000185 0.000125 0
0.000148 0.000238 0
0.000080 0.000326 0
-0.000007 0.000369 0
-0.000096 0.000360 0
-0.000169 0.000307 0
-0.000218 0.000230 0
-0.000242 0.000150 0
-0.000247 0.000082 0
-0.000240 0.000031 0
-0.000229 -0.000000 0
-0.000217 -0.000015 0
-0.000207 -0.000016 0
-0.000202 -0.000007 0
-0.000201 -0.000002 0
0.000000 -0.000001 0
0.000040 -0.000275 0
0.000091 -0.000278 0
0.000139 -0.000217 0
0.000179 -0.000122 0
0.000203 0.000002 0
0.000200 0.000146 0
0.000163 0.000291 0
0.000091 0.000405 0
-0.000004 0.000460 0
-0.000101 0.000444 0
-0.000177 0.000369 0
-0.000223 0.000265 0
-0.000240 0.000162 0
-0.000237 0.000078 0
-0.000224 0.000019 0
-0.000208 -0.000015 0
-0.000192 -0.000027 0
-0.000181 -0.000024 0
-0.000174 -0.000011 0
-0.000174 -0.000002 0
0.000000 -0.000002 0
0.000037 -0.000319 0
0.000083 -0.000325 0
0.000129 -0.000260 0
0.000168 -0.000155 0
0.000193 -0.000012 0
0.000195 0.000162 0
0.000163 0.000343 0
0.000094 0.000490 0
-0.000001 0.000559 0
-0.000096 0.000532 0
-0.000169 0.000430 0
-0.000208 0.000295 0
-0.000218 0.000166 0
-0.000209 0.000066 0
-0.000192 0.000002 0
-0.000173 -0.000032 0
-0.000156 -0.000042 0
-0.000144 -0.000034 0
-0.000138 -0.000014 0
-0.000138 -0.000002 0
0.000000 -0.000000 0
0.000029 -0.000357 0
0.000065 -0.000368 0
0.000101 -0.000301 0
0.000134 -0.000188 0
0.000157 -0.000028 0
0.000162 0.000175 0
0.000139 0.000391 0
0.000082 0.000570 0
0.000003 0.000652 0
-0.000077 0.000613 0
-0.000136 0.000482 0
-0.000165 0.000315 0
-0.000168 0.000163 0
-0.000157 0.000051 0
-0.000140 -0.000018 0
-0.000122 -0.000050 0
-0.000108 -0.000056 0
-0.000098 -0.000042 0
-0.000092 -0.000017 0
-0.000092 -0.000002 0
0.000000 0.000000 0
0.000017 -0.000384 0
0.000037 -0.000399 0
0.000057 -0.000330 0
0.000077 -0.000212 0
0.000092 -0.000040 0
0.000097 0.000182 0
0.000085 0.000425 0
0.000053 0.000627 0
0.000006 0.000719 0
-0.000041 0.000671 0
-0.000075 0.000517 0
-0.000089 0.000326 0
-0.000089 0.000158 0
-0.000081 0.000038 0
-0.000069 -0.000033 0
-0.000058 -0.000064 0
-0.000049 -0.000067 0
-0.000042 -0.000049 0
-0.000039 -0.000019 0
-0.000039 -0.000002 0
0.000000 -0.000000 0
0.000001 -0.000395 0
0.000002 -0.000411 0
0.000003 -0.000341 0
0.000005 -0.000221 0
0.000006 -0.000046 0
0.000008 0.000183 0
0.000009 0.000436 0
0.000010 0.000648 0
0.000009 0.000745 0
0.000008 0.000693 0
0.000008 0.000529 0
0.000009 0.000329 0
0.000010 0.000154 0
0.000012 0.000031 0
0.000014 -0.000040 0
0.000015 -0.000070 0
0.000017 -0.000072 0
0.000018 -0.000052 0
0.000019 -0.000020 0
0.000019 -0.000002 0
0.000000 -0.000001 0
-0.000014 -0.000387 0
-0.000032 -0.000401 0
-0.000051 -0.000332 0
-0.000068 -0.000214 0
-0.000080 -0.000043 0
-0.000082 0.000179 0
-0.000068 0.000423 0
-0.000035 0.000627 0
0.000011 0.000720 0
0.000057 0.000672 0
0.000091 0.000516 0
0.000108 0.000324 0
0.000110 0.000155 0
0.000105 0.000034 0
0.000097 -0.000037 0
0.000090 -0.000068 0
0.000084 -0.000070 0
0.000080 -0.000051 0
0.000078 -0.000020 0
0.000078 -0.000002 0
0.000000 -0.000000 0
-0.000027 -0.000362 0
-0.000062 -0.000373 0
-0.000098 -0.000305 0
-0.000129 -0.000193 0
-0.000150 -0.000032 0
-0.000153 0.000170 0
-0.000127 0.000388 0
-0.000068 0.000569 0
0.000012 0.000653 0
0.000094 0.000613 0
0.000155 0.000479 0
0.000186 0.000310 0
0.000193 0.000157 0
0.000185 0.000044 0
0.000171 -0.000025 0
0.000158 -0.000057 0
0.000146 -0.000062 0
0.000138 -0.000046 0
0.000134 -0.000018 0
0.000134 -0.000002 0
0.000000 0.000000 0
-0.000037 -0.000324 0
-0.000084 -0.000331 0
-0.000130 -0.000267 0
-0.000168 -0.000162 0
-0.000193 -0.000019 0
-0.000193 0.000156 0
-0.000158 0.000339 0
-0.000086 0.000488 0
0.000013 0.000558 0
0.000113 0.000530 0
0.000190 0.000424 0
0.000233 0.000286 0
0.000247 0.000156 0
0.000243 0.000055 0
0.000229 -0.000009 0
0.000213 -0.000042 0
0.000199 -0.000050 0
0.000189 -0.000039 0
0.000184 -0.000016 0
0.000184 -0.000002 0
0.000000 -0.000000 0
-0.000044 -0.000278 0
-0.000098 -0.000281 0
-0.000148 -0.000222 0
-0.000188 -0.000130 0
-0.000211 -0.000008 0
-0.000207 0.000136 0
-0.000167 0.000282 0
-0.000090 0.000398 0
0.000012 0.000454 0
0.000116 0.000436 0
0.000200 0.000358 0
0.000252 0.000252 0
0.000275 0.000147 0
0.000278 0.000063 0
0.000269 0.000005 0
0.000255 -0.000027 0
0.000242 -0.000038 0
0.000232 -0.000031 0
0.000227 -0.000013 0
0.000226 -0.000002 0
0.000000 -0.000000 0
-0.000048 -0.000226 0
-0.000105 -0.000227 0
-0.000157 -0.000176 0
-0.000196 -0.000099 0
-0.000215 -0.000001 0
-0.000206 0.000112 0
-0.000164 0.000222 0
-0.000088 0.000310 0
0.000009 0.000352 0
0.000110 0.000342 0
0.000195 0.000288 0
0.000253 0.000210 0
0.000285 0.000130 0
0.000297 0.000062 0
0.000295 0.000013 0
0.000286 -0.000016 0
0.000275 -0.000027 0
0.000266 -0.000023 0
0.000261 -0.000010 0
0.000261 -0.000001 0
0.000000 -0.000000 0
-0.000051 -0.000172 0
-0.000111 -0.000171 0
-0.000164 -0.000131 0
-0.000201 -0.000072 0
-0.000216 0.000002 0
-0.000204 0.000085 0
-0.000160 0.000164 0
-0.000087 0.000226 0
0.000005 0.000256 0
0.000101 0.000251 0
0.000185 0.000215 0
0.000248 0.000161 0
0.000287 0.000104 0
0.000307 0.000053 0
0.000312 0.000016 0
0.000308 -0.000008 0
0.000300 -0.000018 0
0.000293 -0.000017 0
0.000289 -0.000007 0
0.000288 -0.000001 0
0.000000 0.000000 0
-0.000054 -0.000115 0
-0.000118 -0.000114 0
-0.000172 -0.000087 0
-0.000208 -0.000047 0
-0.000222 0.000002 0
-0.000207 0.000055 0
-0.000162 0.000106 0
-0.000091 0.000145 0
-0.000002 0.000165 0
0.000091 0.000162 0
0.000175 0.000141 0
0.000241 0.000107 0
0.000286 0.000071 0
0.000312 0.000038 0
0.000322 0.000012 0
0.000322 -0.000004 0
0.000316 -0.000012 0
0.000310 -0.000012 0
0.000305 -0.000005 0
0.000305 -0.000001 0
0.000000 0.000000 0
-0.000053 -0.000054 0
-0.000115 -0.000054 0
-0.000167 -0.000041 0
-0.000202 -0.000022 0
-0.000214 0.000000 0
-0.000200 0.000025 0
-0.000159 0.000048 0
-0.000094 0.000066 0
-0.000014 0.000075 0
0.000071 0.000074 0
0.000149 0.000065 0
0.000212 0.000050 0
0.000256 0.000033 0
0.000283 0.000018 0
0.000294 0.000006 0
0.000295 -0.000002 0
0.000290 -0.000006 0
0.000283 -0.000006 0
0.000278 -0.000003 0
0.000278 -0.000000 0
0.000000 0.000000 0
-0.000000 0.000000 0
-0.000000 0.000000 0
-0.000000 0.000000 0
-0.000000 0.000000 0
-0.000000 0.000000 0
-0.000000 0.000000 0
-0.000000 0.000000 0
-0.000000 0.000000 0
-0.000000 0.000000 0
-0.000000 0.000000 0
0.000000 0.000000 0
0.000000 0.000000 0
0.000000 0.000000 0
0.000000 0.000000 0
0.000000 0.000000 0
0.000000 0.000000 0
0.000000 0.000000 0
0.000000 0.000000 0
0.000000 0.000000 0
0.000000 0.000000 0

CELL_DATA 400 
SCALARS pressure float 1 
LOOKUP_TABLE default 
0.242641
0.242644
0.242614
0.242581
0.242567
0.242576
0.242598
0.242619
0.242630
0.242629
0.242621
0.242612
0.242606
0.242603
0.242605
0.242607
0.242609
0.242611
0.242612
0.242613
0.219621
0.219598
0.219591
0.219600
0.219615
0.219627
0.219628
0.219622
0.219613
0.219605
0.219602
0.219602
0.219605
0.219608
0.219611
0.219612
0.219612
0.219613
0.219613
0.219614
0.196589
0.196599
0.196622
0.196637
0.196637
0.196624
0.196608
0.196596
0.196593
0.196597
0.196604
0.196610
0.196614
0.196615
0.196614
0.196613
0.196613
0.196613
0.196613
0.196614
0.173599
0.173622
0.173634
0.173630
0.173615
0.173601
0.173594
0.173595
0.173602
0.173609
0.173615
0.173616
0.173615
0.173614
0.173612
0.173612
0.173612
0.173613
0.173614
0.173614
0.150618
0.150621
0.150616
0.150609
0.150605
0.150604
0.150607
0.150611
0.150614
0.150614
0.150614
0.150612
0.150611
0.150611
0.150612
0.150612
0.150613
0.150614
0.150615
0.150615
0.127616
0.127608
0.127607
0.127612
0.127617
0.127620
0.127619
0.127616
0.127612
0.127609
0.127608
0.127609
0.127611
0.127613
0.127614
0.127615
0.127615
0.127615
0.127616
0.127616
0.104608
0.104608
0.104615
0.104623
0.104625
0.104622
0.104616
0.104610
0.104607
0.104607
0.104609
0.104612
0.104614
0.104615
0.104616
0.104616
0.104616
0.104616
0.104617
0.104617
0.081612
0.081616
0.081620
0.081622
0.081620
0.081615
0.081612
0.081610
0.081610
0.081612
0.081614
0.081615
0.081616
0.081616
0.081616
0.081616
0.081617
0.081617
0.081618
0.081618
0.058620
0.058618
0.058617
0.058616
0.058616
0.058616
0.058617
0.058617
0.058616
0.058616
0.058616
0.058616
0.058616
0.058617
0.058617
0.058618
0.058618
0.058619
0.058619
0.058619
0.035621
0.035616
0.035615
0.035617
0.035620
0.035622
0.035622
0.035621
0.035618
0.035617
0.035616
0.035617
0.035617
0.035618
0.035619
0.035620
0.035620
0.035620
0.035620
0.035620
0.012621
0.012618
0.012619
0.012622
0.012624
0.012624
0.012623
0.012621
0.012620
0.012619
0.012619
0.012620
0.012621
0.012621
0.012621
0.012621
0.012621
0.012621
0.012621
0.012621
-0.010377
-0.010377
-0.010377
-0.010376
-0.010376
-0.010376
-0.010376
-0.010376
-0.010376
-0.010377
-0.010377
-0.010377
-0.010377
-0.010377
-0.010377
-0.010377
-0.010377
-0.010377
-0.010377
-0.010377
-0.033374
-0.033375
-0.033376
-0.033376
-0.033376
-0.033374
-0.033373
-0.033372
-0.033372
-0.033373
-0.033373
-0.033374
-0.033374
-0.033375
-0.033375
-0.033375
-0.033375
-0.033376
-0.033376
-0.033376
-0.056372
-0.056374
-0.056375
-0.056375
-0.056373
-0.056371
-0.056370
-0.056369
-0.056370
-0.056370
-0.056371
-0.056372
-0.056372
-0.056373
-0.056373
-0.056373
-0.056374
-0.056374
-0.056375
-0.056375
-0.079371
-0.079372
-0.079373
-0.079372
-0.079371
-0.079369
-0.079368
-0.079368
-0.079368
-0.079368
-0.079369
-0.079369
-0.079370
-0.079370
-0.079371
-0.079372
-0.079372
-0.079373
-0.079373
-0.079374
-0.102370
-0.102370
-0.102370
-0.102370
-0.102370
-0.102369
-0.102368
-0.102367
-0.102366
-0.102366
-0.102367
-0.102367
-0.102368
-0.102369
-0.102369
-0.102370
-0.102371
-0.102371
-0.102372
-0.102373
-0.125369
-0.125369
-0.125369
-0.125369
-0.125369
-0.125368
-0.125367
-0.125365
-0.125365
-0.125365
-0.125365
-0.125366
-0.125366
-0.125367
-0.125368
-0.125369
-0.125369
-0.125370
-0.125371
-0.125372
-0.148368
-0.148368
-0.148368
-0.148368
-0.148368
-0.148366
-0.148365
-0.148364
-0.148364
-0.148363
-0.148364
-0.148364
-0.148365
-0.148366
-0.148366
-0.148367
-0.148368
-0.148369
-0.148370
-0.148371
-0.171368
-0.171368
-0.171368
-0.171367
-0.171366
-0.171365
-0.171364
-0.171363
-0.171363
-0.171362
-0.171362
-0.171363
-0.171363
-0.171364
-0.171365
-0.171366
-0.171367
-0.171368
-0.171369
-0.171370
-0.194368
-0.194367
-0.194367
-0.194366
-0.194366
-0.194365
-0.194363
-0.194362
-0.194361
-0.194361
-0.194361
-0.194361
-0.194362
-0.194363
-0.194364
-0.194365
-0.194366
-0.194367
-0.194368
-0.194369

SCALARS temperature float 1 
LOOKUP_TABLE default 
0.000037
0.000279
0.000745
0.001400
0.002193
0.003058
0.003919
0.004698
0.005331
0.005769
0.005996
0.006028
0.005900
0.005662
0.005365
0.005055
0.004770
0.004537
0.004374
0.004291
0.000039
0.000296
0.000789
0.001483
0.002325
0.003245
0.004160
0.004987
0.005652
0.006103
0.006324
0.006333
0.006173
0.005900
0.005569
0.005230
0.004921
0.004671
0.004497
0.004409
0.000044
0.000330
0.000881
0.001659
0.002606
0.003643
0.004674
0.005601
0.006334
0.006810
0.007013
0.006970
0.006738
0.006385
0.005980
0.005576
0.005217
0.004931
0.004733
0.004634
0.000052
0.000385
0.001030
0.001946
0.003067
0.004301
0.005533
0.006630
0.007477
0.007990
0.008151
0.008007
0.007641
0.007147
0.006612
0.006101
0.005658
0.005312
0.005077
0.004960
0.000064
0.000465
0.001246
0.002366
0.003751
0.005293
0.006841
0.008213
0.009239
0.009798
0.009871
0.009544
0.008947
0.008222
0.007482
0.006806
0.006241
0.005809
0.005520
0.005378
0.000079
0.000570
0.001536
0.002940
0.004704
0.006699
0.008727
0.010523
0.011823
0.012435
0.012340
0.011695
0.010723
0.009638
0.008593
0.007683
0.006949
0.006403
0.006045
0.005870
0.000098
0.000701
0.001900
0.003672
0.005948
0.008579
0.011308
0.013741
0.015451
0.016117
0.015722
0.014558
0.013005
0.011391
0.009923
0.008702
0.007751
0.007063
0.006621
0.006407
0.000119
0.000848
0.002315
0.004527
0.007445
0.010914
0.014608
0.017952
0.020251
0.020965
0.020083
0.018130
0.015740
0.013408
0.011398
0.009796
0.008591
0.007744
0.007209
0.006953
0.000140
0.000995
0.002736
0.005415
0.009048
0.013508
0.018403
0.022926
0.026001
0.026752
0.025182
0.022163
0.018703
0.015504
0.012875
0.010859
0.009393
0.008386
0.007760
0.007463
0.000157
0.001117
0.003092
0.006183
0.010477
0.015913
0.022045
0.027836
0.031755
0.032534
0.030188
0.026000
0.021417
0.017357
0.014145
0.011758
0.010066
0.008925
0.008223
0.007890
0.000167
0.001190
0.003310
0.006658
0.011379
0.017476
0.024484
0.031207
0.035753
0.036558
0.033646
0.028601
0.023220
0.018575
0.014980
0.012361
0.010529
0.009304
0.008554
0.008199
0.000170
0.001205
0.003349
0.006734
0.011506
0.017675
0.024782
0.031633
0.036294
0.037120
0.034155
0.029028
0.023577
0.018879
0.015242
0.012592
0.010736
0.009492
0.008731
0.008368
0.000164
0.001160
0.003209
0.006410
0.010851
0.016483
0.022877
0.028989
0.033189
0.034045
0.031580
0.027196
0.022436
0.018237
0.014913
0.012439
0.010679
0.009486
0.008748
0.008394
0.000151
0.001067
0.002929
0.005785
0.009646
0.014393
0.019639
0.024562
0.027980
0.028850
0.027173
0.023948
0.020282
0.016903
0.014119
0.011972
0.010399
0.009310
0.008627
0.008295
0.000134
0.000949
0.002583
0.005035
0.008254
0.012075
0.016164
0.019916
0.022553
0.023416
0.022487
0.020378
0.017801
0.015278
0.013085
0.011318
0.009974
0.009018
0.008406
0.008104
0.000117
0.000831
0.002243
0.004317
0.006964
0.010009
0.013169
0.016011
0.018046
0.018885
0.018500
0.017232
0.015512
0.013701
0.012029
0.010613
0.009492
0.008670
0.008133
0.007865
0.000102
0.000728
0.001953
0.003722
0.005927
0.008402
0.010908
0.013135
0.014770
0.015577
0.015526
0.014804
0.013671
0.012373
0.011098
0.009963
0.009031
0.008326
0.007856
0.007618
0.000091
0.000650
0.001736
0.003284
0.005183
0.007277
0.009363
0.011210
0.012598
0.013375
0.013509
0.013108
0.012338
0.011376
0.010372
0.009439
0.008647
0.008033
0.007616
0.007402
0.000083
0.000599
0.001595
0.003003
0.004714
0.006580
0.008424
0.010054
0.011304
0.012058
0.012284
0.012055
0.011489
0.010722
0.009884
0.009077
0.008375
0.007821
0.007439
0.007242
0.000079
0.000572
0.001523
0.002863
0.004484
0.006246
0.007980
0.009515
0.010702
0.011444
0.011709
0.011552
0.011074
0.010395
0.009633
0.008887
0.008229
0.007706
0.007344
0.007157


SCALARS Species_1 float 1 
LOOKUP_TABLE default 
0.000494
0.001478
0.002449
0.003399
0.004322
0.005209
0.006055
0.006853
0.007599
0.008288
0.008917
0.009482
0.009983
0.010420
0.010791
0.011098
0.011342
0.011524
0.011644
0.011704
0.000493
0.001474
0.002442
0.003390
0.004310
0.005196
0.006039
0.006836
0.007580
0.008268
0.008895
0.009459
0.009959
0.010394
0.010765
0.011071
0.011315
0.011496
0.011616
0.011676
0.000491
0.001467
0.002431
0.003375
0.004290
0.005172
0.006012
0.006805
0.007546
0.008230
0.008855
0.009416
0.009914
0.010347
0.010716
0.011022
0.011264
0.011445
0.011564
0.011624
0.000487
0.001457
0.002415
0.003352
0.004262
0.005137
0.005972
0.006760
0.007496
0.008176
0.008796
0.009355
0.009849
0.010280
0.010646
0.010949
0.011190
0.011370
0.011489
0.011548
0.000483
0.001444
0.002393
0.003322
0.004224
0.005092
0.005919
0.006700
0.007431
0.008105
0.008720
0.009273
0.009764
0.010190
0.010554
0.010854
0.011093
0.011271
0.011389
0.011448
0.000478
0.001429
0.002367
0.003286
0.004178
0.005036
0.005855
0.006628
0.007350
0.008017
0.008626
0.009173
0.009658
0.010080
0.010439
0.010736
0.010973
0.011149
0.011266
0.011324
0.000471
0.001410
0.002336
0.003243
0.004124
0.004971
0.005779
0.006542
0.007255
0.007913
0.008514
0.009054
0.009532
0.009949
0.010303
0.010597
0.010830
0.011004
0.011119
0.011177
0.000464
0.001389
0.002301
0.003195
0.004062
0.004896
0.005692
0.006443
0.007145
0.007794
0.008385
0.008917
0.009388
0.009798
0.010147
0.010436
0.010666
0.010837
0.010951
0.011008
0.000457
0.001365
0.002263
0.003141
0.003993
0.004813
0.005595
0.006334
0.007024
0.007661
0.008242
0.008764
0.009227
0.009630
0.009973
0.010257
0.010483
0.010651
0.010763
0.010819
0.000448
0.001340
0.002221
0.003083
0.003919
0.004724
0.005491
0.006215
0.006892
0.007517
0.008086
0.008598
0.009052
0.009447
0.009784
0.010062
0.010284
0.010450
0.010560
0.010615
0.000439
0.001314
0.002177
0.003022
0.003841
0.004630
0.005381
0.006090
0.006752
0.007364
0.007921
0.008422
0.008866
0.009253
0.009583
0.009857
0.010074
0.010237
0.010345
0.010398
0.000430
0.001287
0.002132
0.002959
0.003761
0.004533
0.005268
0.005961
0.006609
0.007206
0.007751
0.008241
0.008675
0.009054
0.009377
0.009645
0.009858
0.010017
0.010123
0.010176
0.000421
0.001259
0.002087
0.002896
0.003681
0.004436
0.005154
0.005832
0.006464
0.007048
0.007580
0.008059
0.008484
0.008855
0.009171
0.009433
0.009642
0.009798
0.009901
0.009953
0.000412
0.001233
0.002042
0.002834
0.003602
0.004341
0.005043
0.005706
0.006324
0.006894
0.007415
0.007883
0.008299
0.008661
0.008971
0.009227
0.009432
0.009585
0.009686
0.009737
0.000404
0.001208
0.002001
0.002777
0.003529
0.004251
0.004939
0.005587
0.006192
0.006750
0.007259
0.007718
0.008125
0.008480
0.008783
0.009035
0.009235
0.009385
0.009485
0.009535
0.000396
0.001185
0.001963
0.002724
0.003462
0.004170
0.004845
0.005480
0.006073
0.006620
0.007120
0.007570
0.007969
0.008317
0.008615
0.008862
0.009059
0.009206
0.009304
0.009353
0.000390
0.001166
0.001931
0.002679
0.003405
0.004101
0.004764
0.005389
0.005972
0.006510
0.007001
0.007444
0.007836
0.008179
0.008472
0.008715
0.008909
0.009054
0.009150
0.009199
0.000385
0.001150
0.001906
0.002644
0.003360
0.004047
0.004701
0.005317
0.005892
0.006423
0.006908
0.007345
0.007732
0.008071
0.008360
0.008600
0.008792
0.008935
0.009030
0.009077
0.000381
0.001140
0.001888
0.002620
0.003329
0.004010
0.004657
0.005268
0.005838
0.006364
0.006844
0.007277
0.007661
0.007996
0.008283
0.008521
0.008711
0.008852
0.008947
0.008994
0.000379
0.001134
0.001879
0.002607
0.003313
0.003990
0.004635
0.005243
0.005810
0.006333
0.006811
0.007242
0.007624
0.007958
0.008244
0.008481
0.008669
0.008811
0.008904
0.008951


SCALARS Species_2 float 1 
LOOKUP_TABLE default 
0.000226
0.000673
0.001103
0.001508
0.001880
0.002212
0.002499
0.002739
0.002930
0.003075
0.003176
0.003238
0.003268
0.003272
0.003258
0.003234
0.003205
0.003178
0.003157
0.003145
0.000228
0.000679
0.001114
0.001523
0.001899
0.002234
0.002524
0.002766
0.002959
0.003105
0.003208
0.003271
0.003302
0.003306
0.003293
0.003268
0.003239
0.003212
0.003191
0.003180
0.000233
0.000692
0.001135
0.001553
0.001935
0.002277
0.002573
0.002820
0.003017
0.003166
0.003271
0.003336
0.003368
0.003373
0.003359
0.003335
0.003305
0.003278
0.003257
0.003245
0.000239
0.000712