# vtk DataFile Version 2.0
generated by CFD-lab course output (written by Tobias Neckel) 
ASCII

DATASET STRUCTURED_GRID
DIMENSIONS  21 21 1 
POINTS 441 float

0.000000 0.000000 0
0.100000 0.000000 0
0.200000 0.000000 0
0.300000 0.000000 0
0.400000 0.000000 0
0.500000 0.000000 0
0.600000 0.000000 0
0.700000 0.000000 0
0.800000 0.000000 0
0.900000 0.000000 0
1.000000 0.000000 0
1.100000 0.000000 0
1.200000 0.000000 0
1.300000 0.000000 0
1.400000 0.000000 0
1.500000 0.000000 0
1.600000 0.000000 0
1.700000 0.000000 0
1.800000 0.000000 0
1.900000 0.000000 0
2.000000 0.000000 0
0.000000 0.100000 0
0.100000 0.100000 0
0.200000 0.100000 0
0.300000 0.100000 0
0.400000 0.100000 0
0.500000 0.100000 0
0.600000 0.100000 0
0.700000 0.100000 0
0.800000 0.100000 0
0.900000 0.100000 0
1.000000 0.100000 0
1.100000 0.100000 0
1.200000 0.100000 0
1.300000 0.100000 0
1.400000 0.100000 0
1.500000 0.100000 0
1.600000 0.100000 0
1.700000 0.100000 0
1.800000 0.100000 0
1.900000 0.100000 0
2.000000 0.100000 0
0.000000 0.200000 0
0.100000 0.200000 0
0.200000 0.200000 0
0.300000 0.200000 0
0.400000 0.200000 0
0.500000 0.200000 0
0.600000 0.200000 0
0.700000 0.200000 0
0.800000 0.200000 0
0.900000 0.200000 0
1.000000 0.200000 0
1.100000 0.200000 0
1.200000 0.200000 0
1.300000 0.200000 0
1.400000 0.200000 0
1.500000 0.200000 0
1.600000 0.200000 0
1.700000 0.200000 0
1.800000 0.200000 0
1.900000 0.200000 0
2.000000 0.200000 0
0.000000 0.300000 0
0.100000 0.300000 0
0.200000 0.300000 0
0.300000 0.300000 0
0.400000 0.300000 0
0.500000 0.300000 0
0.600000 0.300000 0
0.700000 0.300000 0
0.800000 0.300000 0
0.900000 0.300000 0
1.000000 0.300000 0
1.100000 0.300000 0
1.200000 0.300000 0
1.300000 0.300000 0
1.400000 0.300000 0
1.500000 0.300000 0
1.600000 0.300000 0
1.700000 0.300000 0
1.800000 0.300000 0
1.900000 0.300000 0
2.000000 0.300000 0
0.000000 0.400000 0
0.100000 0.400000 0
0.200000 0.400000 0
0.300000 0.400000 0
0.400000 0.400000 0
0.500000 0.400000 0
0.600000 0.400000 0
0.700000 0.400000 0
0.800000 0.400000 0
0.900000 0.400000 0
1.000000 0.400000 0
1.100000 0.400000 0
1.200000 0.400000 0
1.300000 0.400000 0
1.400000 0.400000 0
1.500000 0.400000 0
1.600000 0.400000 0
1.700000 0.400000 0
1.800000 0.400000 0
1.900000 0.400000 0
2.000000 0.400000 0
0.000000 0.500000 0
0.100000 0.500000 0
0.200000 0.500000 0
0.300000 0.500000 0
0.400000 0.500000 0
0.500000 0.500000 0
0.600000 0.500000 0
0.700000 0.500000 0
0.800000 0.500000 0
0.900000 0.500000 0
1.000000 0.500000 0
1.100000 0.500000 0
1.200000 0.500000 0
1.300000 0.500000 0
1.400000 0.500000 0
1.500000 0.500000 0
1.600000 0.500000 0
1.700000 0.500000 0
1.800000 0.500000 0
1.900000 0.500000 0
2.000000 0.500000 0
0.000000 0.600000 0
0.100000 0.600000 0
0.200000 0.600000 0
0.300000 0.600000 0
0.400000 0.600000 0
0.500000 0.600000 0
0.600000 0.600000 0
0.700000 0.600000 0
0.800000 0.600000 0
0.900000 0.600000 0
1.000000 0.600000 0
1.100000 0.600000 0
1.200000 0.600000 0
1.300000 0.600000 0
1.400000 0.600000 0
1.500000 0.600000 0
1.600000 0.600000 0
1.700000 0.600000 0
1.800000 0.600000 0
1.900000 0.600000 0
2.000000 0.600000 0
0.000000 0.700000 0
0.100000 0.700000 0
0.200000 0.700000 0
0.300000 0.700000 0
0.400000 0.700000 0
0.500000 0.700000 0
0.600000 0.700000 0
0.700000 0.700000 0
0.800000 0.700000 0
0.900000 0.700000 0
1.000000 0.700000 0
1.100000 0.700000 0
1.200000 0.700000 0
1.300000 0.700000 0
1.400000 0.700000 0
1.500000 0.700000 0
1.600000 0.700000 0
1.700000 0.700000 0
1.800000 0.700000 0
1.900000 0.700000 0
2.000000 0.700000 0
0.000000 0.800000 0
0.100000 0.800000 0
0.200000 0.800000 0
0.300000 0.800000 0
0.400000 0.800000 0
0.500000 0.800000 0
0.600000 0.800000 0
0.700000 0.800000 0
0.800000 0.800000 0
0.900000 0.800000 0
1.000000 0.800000 0
1.100000 0.800000 0
1.200000 0.800000 0
1.300000 0.800000 0
1.400000 0.800000 0
1.500000 0.800000 0
1.600000 0.800000 0
1.700000 0.800000 0
1.800000 0.800000 0
1.900000 0.800000 0
2.000000 0.800000 0
0.000000 0.900000 0
0.100000 0.900000 0
0.200000 0.900000 0
0.300000 0.900000 0
0.400000 0.900000 0
0.500000 0.900000 0
0.600000 0.900000 0
0.700000 0.900000 0
0.800000 0.900000 0
0.900000 0.900000 0
1.000000 0.900000 0
1.100000 0.900000 0
1.200000 0.900000 0
1.300000 0.900000 0
1.400000 0.900000 0
1.500000 0.900000 0
1.600000 0.900000 0
1.700000 0.900000 0
1.800000 0.900000 0
1.900000 0.900000 0
2.000000 0.900000 0
0.000000 1.000000 0
0.100000 1.000000 0
0.200000 1.000000 0
0.300000 1.000000 0
0.400000 1.000000 0
0.500000 1.000000 0
0.600000 1.000000 0
0.700000 1.000000 0
0.800000 1.000000 0
0.900000 1.000000 0
1.000000 1.000000 0
1.100000 1.000000 0
1.200000 1.000000 0
1.300000 1.000000 0
1.400000 1.000000 0
1.500000 1.000000 0
1.600000 1.000000 0
1.700000 1.000000 0
1.800000 1.000000 0
1.900000 1.000000 0
2.000000 1.000000 0
0.000000 1.100000 0
0.100000 1.100000 0
0.200000 1.100000 0
0.300000 1.100000 0
0.400000 1.100000 0
0.500000 1.100000 0
0.600000 1.100000 0
0.700000 1.100000 0
0.800000 1.100000 0
0.900000 1.100000 0
1.000000 1.100000 0
1.100000 1.100000 0
1.200000 1.100000 0
1.300000 1.100000 0
1.400000 1.100000 0
1.500000 1.100000 0
1.600000 1.100000 0
1.700000 1.100000 0
1.800000 1.100000 0
1.900000 1.100000 0
2.000000 1.100000 0
0.000000 1.200000 0
0.100000 1.200000 0
0.200000 1.200000 0
0.300000 1.200000 0
0.400000 1.200000 0
0.500000 1.200000 0
0.600000 1.200000 0
0.700000 1.200000 0
0.800000 1.200000 0
0.900000 1.200000 0
1.000000 1.200000 0
1.100000 1.200000 0
1.200000 1.200000 0
1.300000 1.200000 0
1.400000 1.200000 0
1.500000 1.200000 0
1.600000 1.200000 0
1.700000 1.200000 0
1.800000 1.200000 0
1.900000 1.200000 0
2.000000 1.200000 0
0.000000 1.300000 0
0.100000 1.300000 0
0.200000 1.300000 0
0.300000 1.300000 0
0.400000 1.300000 0
0.500000 1.300000 0
0.600000 1.300000 0
0.700000 1.300000 0
0.800000 1.300000 0
0.900000 1.300000 0
1.000000 1.300000 0
1.100000 1.300000 0
1.200000 1.300000 0
1.300000 1.300000 0
1.400000 1.300000 0
1.500000 1.300000 0
1.600000 1.300000 0
1.700000 1.300000 0
1.800000 1.300000 0
1.900000 1.300000 0
2.000000 1.300000 0
0.000000 1.400000 0
0.100000 1.400000 0
0.200000 1.400000 0
0.300000 1.400000 0
0.400000 1.400000 0
0.500000 1.400000 0
0.600000 1.400000 0
0.700000 1.400000 0
0.800000 1.400000 0
0.900000 1.400000 0
1.000000 1.400000 0
1.100000 1.400000 0
1.200000 1.400000 0
1.300000 1.400000 0
1.400000 1.400000 0
1.500000 1.400000 0
1.600000 1.400000 0
1.700000 1.400000 0
1.800000 1.400000 0
1.900000 1.400000 0
2.000000 1.400000 0
0.000000 1.500000 0
0.100000 1.500000 0
0.200000 1.500000 0
0.300000 1.500000 0
0.400000 1.500000 0
0.500000 1.500000 0
0.600000 1.500000 0
0.700000 1.500000 0
0.800000 1.500000 0
0.900000 1.500000 0
1.000000 1.500000 0
1.100000 1.500000 0
1.200000 1.500000 0
1.300000 1.500000 0
1.400000 1.500000 0
1.500000 1.500000 0
1.600000 1.500000 0
1.700000 1.500000 0
1.800000 1.500000 0
1.900000 1.500000 0
2.000000 1.500000 0
0.000000 1.600000 0
0.100000 1.600000 0
0.200000 1.600000 0
0.300000 1.600000 0
0.400000 1.600000 0
0.500000 1.600000 0
0.600000 1.600000 0
0.700000 1.600000 0
0.800000 1.600000 0
0.900000 1.600000 0
1.000000 1.600000 0
1.100000 1.600000 0
1.200000 1.600000 0
1.300000 1.600000 0
1.400000 1.600000 0
1.500000 1.600000 0
1.600000 1.600000 0
1.700000 1.600000 0
1.800000 1.600000 0
1.900000 1.600000 0
2.000000 1.600000 0
0.000000 1.700000 0
0.100000 1.700000 0
0.200000 1.700000 0
0.300000 1.700000 0
0.400000 1.700000 0
0.500000 1.700000 0
0.600000 1.700000 0
0.700000 1.700000 0
0.800000 1.700000 0
0.900000 1.700000 0
1.000000 1.700000 0
1.100000 1.700000 0
1.200000 1.700000 0
1.300000 1.700000 0
1.400000 1.700000 0
1.500000 1.700000 0
1.600000 1.700000 0
1.700000 1.700000 0
1.800000 1.700000 0
1.900000 1.700000 0
2.000000 1.700000 0
0.000000 1.800000 0
0.100000 1.800000 0
0.200000 1.800000 0
0.300000 1.800000 0
0.400000 1.800000 0
0.500000 1.800000 0
0.600000 1.800000 0
0.700000 1.800000 0
0.800000 1.800000 0
0.900000 1.800000 0
1.000000 1.800000 0
1.100000 1.800000 0
1.200000 1.800000 0
1.300000 1.800000 0
1.400000 1.800000 0
1.500000 1.800000 0
1.600000 1.800000 0
1.700000 1.800000 0
1.800000 1.800000 0
1.900000 1.800000 0
2.000000 1.800000 0
0.000000 1.900000 0
0.100000 1.900000 0
0.200000 1.900000 0
0.300000 1.900000 0
0.400000 1.900000 0
0.500000 1.900000 0
0.600000 1.900000 0
0.700000 1.900000 0
0.800000 1.900000 0
0.900000 1.900000 0
1.000000 1.900000 0
1.100000 1.900000 0
1.200000 1.900000 0
1.300000 1.900000 0
1.400000 1.900000 0
1.500000 1.900000 0
1.600000 1.900000 0
1.700000 1.900000 0
1.800000 1.900000 0
1.900000 1.900000 0
2.000000 1.900000 0
0.000000 2.000000 0
0.100000 2.000000 0
0.200000 2.000000 0
0.300000 2.000000 0
0.400000 2.000000 0
0.500000 2.000000 0
0.600000 2.000000 0
0.700000 2.000000 0
0.800000 2.000000 0
0.900000 2.000000 0
1.000000 2.000000 0
1.100000 2.000000 0
1.200000 2.000000 0
1.300000 2.000000 0
1.400000 2.000000 0
1.500000 2.000000 0
1.600000 2.000000 0
1.700000 2.000000 0
1.800000 2.000000 0
1.900000 2.000000 0
2.000000 2.000000 0
POINT_DATA 441 

VECTORS velocity float
0.000000 0.000000 0
-0.000003 0.000000 0
0.000006 0.000000 0
0.000008 0.000000 0
0.000005 0.000000 0
0.000000 0.000000 0
-0.000004 0.000000 0
-0.000006 0.000000 0
-0.000005 0.000000 0
-0.000002 0.000000 0
0.000000 0.000000 0
0.000002 0.000000 0
0.000002 0.000000 0
0.000002 0.000000 0
0.000001 0.000000 0
-0.000000 0.000000 0
-0.000000 0.000000 0
-0.000000 0.000000 0
-0.000000 0.000000 0
-0.000000 0.000000 0
-0.000000 0.000000 0
0.000000 0.000002 0
0.000004 0.000007 0
0.000007 0.000007 0
0.000006 0.000001 0
0.000003 -0.000006 0
0.000001 -0.000010 0
-0.000001 -0.000010 0
-0.000001 -0.000005 0
-0.000002 0.000002 0
-0.000003 0.000007 0
-0.000004 0.000009 0
-0.000007 0.000007 0
-0.000009 0.000005 0
-0.000011 0.000002 0
-0.000012 -0.000000 0
-0.000013 -0.000001 0
-0.000013 -0.000001 0
-0.000013 -0.000001 0
-0.000012 -0.000000 0
-0.000012 -0.000000 0
-0.000012 -0.000000 0
0.000000 0.000010 0
0.000003 0.000002 0
0.000001 -0.000005 0
0.000001 -0.000009 0
0.000002 -0.000009 0
0.000004 -0.000004 0
0.000005 0.000003 0
0.000004 0.000009 0
0.000002 0.000012 0
-0.000002 0.000010 0
-0.000006 0.000007 0
-0.000010 0.000003 0
-0.000012 0.000001 0
-0.000013 -0.000000 0
-0.000013 -0.000001 0
-0.000013 -0.000000 0
-0.000013 0.000000 0
-0.000013 0.000000 0
-0.000013 -0.000000 0
-0.000013 -0.000000 0
-0.000012 -0.000000 0
0.000000 0.000001 0
-0.000002 -0.000007 0
-0.000001 -0.000009 0
0.000003 -0.000005 0
0.000007 0.000002 0
0.000009 0.000008 0
0.000008 0.000010 0
0.000005 0.000010 0
0.000000 0.000008 0
-0.000005 0.000005 0
-0.000009 0.000004 0
-0.000011 0.000003 0
-0.000013 0.000003 0
-0.000013 0.000003 0
-0.000013 0.000002 0
-0.000013 0.000001 0
-0.000013 0.000001 0
-0.000013 -0.000000 0
-0.000013 -0.000000 0
-0.000013 -0.000000 0
-0.000012 -0.000001 0
0.000000 -0.000006 0
-0.000002 -0.000009 0
0.000003 -0.000003 0
0.000008 0.000002 0
0.000010 0.000005 0
0.000010 0.000005 0
0.000008 0.000004 0
0.000005 0.000004 0
0.000000 0.000006 0
-0.000004 0.000008 0
-0.000008 0.000010 0
-0.000011 0.000010 0
-0.000013 0.000009 0
-0.000015 0.000006 0
-0.000015 0.000003 0
-0.000015 0.000001 0
-0.000014 -0.000001 0
-0.000013 -0.000001 0
-0.000013 -0.000001 0
-0.000012 -0.000001 0
-0.000012 -0.000001 0
0.000000 -0.000002 0
0.000003 -0.000006 0
0.000007 -0.000003 0
0.000009 -0.000003 0
0.000010 -0.000004 0
0.000010 -0.000003 0
0.000010 0.000001 0
0.000008 0.000008 0
0.000004 0.000015 0
-0.000002 0.000019 0
-0.000008 0.000019 0
-0.000013 0.000015 0
-0.000016 0.000010 0
-0.000017 0.000005 0
-0.000017 0.000001 0
-0.000016 -0.000001 0
-0.000014 -0.000002 0
-0.000013 -0.000002 0
-0.000012 -0.000002 0
-0.000012 -0.000001 0
-0.000012 -0.000001 0
0.000000 0.000003 0
0.000004 -0.000009 0
0.000006 -0.000011 0
0.000007 -0.000011 0
0.000010 -0.000008 0
0.000013 -0.000002 0
0.000015 0.000008 0
0.000013 0.000018 0
0.000007 0.000024 0
-0.000001 0.000026 0
-0.000010 0.000023 0
-0.000017 0.000017 0
-0.000020 0.000009 0
-0.000020 0.000004 0
-0.000018 -0.000000 0
-0.000016 -0.000002 0
-0.000014 -0.000003 0
-0.000013 -0.000003 0
-0.000012 -0.000002 0
-0.000011 -0.000001 0
-0.000011 -0.000001 0
0.000000 0.000001 0
0.000002 -0.000015 0
0.000005 -0.000016 0
0.000009 -0.000013 0
0.000014 -0.000006 0
0.000018 0.000002 0
0.000019 0.000011 0
0.000016 0.000021 0
0.000009 0.000029 0
-0.000002 0.000032 0
-0.000012 0.000029 0
-0.000019 0.000021 0
-0.000022 0.000011 0
-0.000021 0.000003 0
-0.000019 -0.000002 0
-0.000016 -0.000004 0
-0.000013 -0.000005 0
-0.000012 -0.000004 0
-0.000010 -0.000003 0
-0.000010 -0.000002 0
-0.000010 -0.000001 0
0.000000 -0.000002 0
0.000002 -0.000019 0
0.000006 -0.000016 0
0.000010 -0.000013 0
0.000015 -0.000009 0
0.000018 -0.000002 0
0.000019 0.000009 0
0.000017 0.000023 0
0.000010 0.000037 0
-0.000002 0.000043 0
-0.000013 0.000039 0
-0.000020 0.000027 0
-0.000022 0.000013 0
-0.000020 0.000002 0
-0.000017 -0.000005 0
-0.000014 -0.000007 0
-0.000012 -0.000007 0
-0.000010 -0.000006 0
-0.000008 -0.000004 0
-0.000008 -0.000002 0
-0.000008 -0.000001 0
0.000000 -0.000001 0
0.000003 -0.000019 0
0.000006 -0.000019 0
0.000008 -0.000018 0
0.000011 -0.000016 0
0.000015 -0.000008 0
0.000017 0.000007 0
0.000016 0.000028 0
0.000010 0.000048 0
-0.000000 0.000056 0
-0.000011 0.000050 0
-0.000017 0.000032 0
-0.000019 0.000013 0
-0.000017 -0.000001 0
-0.000014 -0.000008 0
-0.000011 -0.000010 0
-0.000008 -0.000010 0
-0.000007 -0.000008 0
-0.000006 -0.000005 0
-0.000005 -0.000003 0
-0.000005 -0.000001 0
0.000000 0.000001 0
0.000002 -0.000021 0
0.000003 -0.000023 0
0.000004 -0.000023 0
0.000006 -0.000019 0
0.000008 -0.000009 0
0.000010 0.000009 0
0.000010 0.000033 0
0.000006 0.000056 0
0.000000 0.000065 0
-0.000006 0.000056 0
-0.000010 0.000034 0
-0.000011 0.000012 0
-0.000009 -0.000003 0
-0.000007 -0.000011 0
-0.000005 -0.000013 0
-0.000004 -0.000011 0
-0.000003 -0.000009 0
-0.000002 -0.000006 0
-0.000002 -0.000003 0
-0.000002 -0.000001 0
0.000000 0.000000 0
0.000000 -0.000024 0
-0.000001 -0.000025 0
-0.000001 -0.000023 0
-0.000000 -0.000019 0
-0.000000 -0.000009 0
0.000000 0.000009 0
0.000000 0.000034 0
0.000000 0.000057 0
0.000000 0.000067 0
0.000001 0.000058 0
0.000001 0.000035 0
0.000001 0.000012 0
0.000001 -0.000004 0
0.000001 -0.000012 0
0.000001 -0.000013 0
0.000001 -0.000012 0
0.000001 -0.000009 0
0.000001 -0.000006 0
0.000001 -0.000003 0
0.000001 -0.000001 0
0.000000 -0.000001 0
-0.000001 -0.000023 0
-0.000003 -0.000023 0
-0.000005 -0.000021 0
-0.000007 -0.000017 0
-0.000009 -0.000009 0
-0.000011 0.000008 0
-0.000010 0.000032 0
-0.000006 0.000054 0
0.000001 0.000064 0
0.000008 0.000055 0
0.000012 0.000034 0
0.000013 0.000012 0
0.000011 -0.000003 0
0.000010 -0.000011 0
0.000008 -0.000013 0
0.000006 -0.000011 0
0.000006 -0.000009 0
0.000005 -0.000006 0
0.000005 -0.000003 0
0.000005 -0.000001 0
0.000000 -0.000000 0
-0.000002 -0.000020 0
-0.000005 -0.000020 0
-0.000008 -0.000019 0
-0.000012 -0.000015 0
-0.000015 -0.000007 0
-0.000017 0.000008 0
-0.000015 0.000028 0
-0.000009 0.000047 0
0.000002 0.000055 0
0.000012 0.000048 0
0.000019 0.000031 0
0.000020 0.000012 0
0.000019 -0.000001 0
0.000016 -0.000008 0
0.000013 -0.000010 0
0.000011 -0.000010 0
0.000009 -0.000008 0
0.000008 -0.000005 0
0.000008 -0.000003 0
0.000008 -0.000001 0
0.000000 0.000000 0
-0.000002 -0.000017 0
-0.000006 -0.000017 0
-0.000010 -0.000016 0
-0.000014 -0.000012 0
-0.000018 -0.000004 0
-0.000019 0.000009 0
-0.000017 0.000024 0
-0.000009 0.000037 0
0.000002 0.000043 0
0.000014 0.000038 0
0.000021 0.000026 0
0.000024 0.000012 0
0.000022 0.000001 0
0.000020 -0.000005 0
0.000017 -0.000008 0
0.000014 -0.000007 0
0.000012 -0.000006 0
0.000011 -0.000004 0
0.000010 -0.000002 0
0.000010 -0.000001 0
0.000000 0.000000 0
-0.000003 -0.000014 0
-0.000007 -0.000014 0
-0.000010 -0.000011 0
-0.000014 -0.000008 0
-0.000017 -0.000001 0
-0.000017 0.000008 0
-0.000015 0.000019 0
-0.000008 0.000028 0
0.000003 0.000032 0
0.000013 0.000029 0
0.000020 0.000021 0
0.000023 0.000011 0
0.000023 0.000003 0
0.000021 -0.000002 0
0.000018 -0.000005 0
0.000016 -0.000005 0
0.000014 -0.000005 0
0.000013 -0.000003 0
0.000012 -0.000002 0
0.000012 -0.000001 0
0.000000 -0.000000 0
-0.000003 -0.000010 0
-0.000006 -0.000010 0
-0.000009 -0.000008 0
-0.000012 -0.000005 0
-0.000014 0.000000 0
-0.000014 0.000007 0
-0.000012 0.000014 0
-0.000005 0.000020 0
0.000003 0.000022 0
0.000011 0.000021 0
0.000018 0.000016 0
0.000021 0.000009 0
0.000022 0.000003 0
0.000021 -0.000001 0
0.000019 -0.000003 0
0.000017 -0.000003 0
0.000016 -0.000003 0
0.000014 -0.000002 0
0.000014 -0.000001 0
0.000014 -0.000001 0
0.000000 0.000000 0
-0.000003 -0.000007 0
-0.000006 -0.000007 0
-0.000008 -0.000005 0
-0.000011 -0.000003 0
-0.000012 0.000000 0
-0.000011 0.000005 0
-0.000009 0.000010 0
-0.000003 0.000014 0
0.000003 0.000015 0
0.000010 0.000014 0
0.000015 0.000011 0
0.000019 0.000007 0
0.000020 0.000003 0
0.000020 0.000000 0
0.000019 -0.000001 0
0.000017 -0.000002 0
0.000016 -0.000002 0
0.000015 -0.000002 0
0.000015 -0.000001 0
0.000015 -0.000001 0
0.000000 0.000000 0
-0.000003 -0.000005 0
-0.000005 -0.000004 0
-0.000007 -0.000003 0
-0.000009 -0.000002 0
-0.000010 0.000001 0
-0.000009 0.000003 0
-0.000006 0.000006 0
-0.000002 0.000008 0
0.000003 0.000009 0
0.000009 0.000009 0
0.000013 0.000007 0
0.000017 0.000005 0
0.000018 0.000002 0
0.000019 0.000001 0
0.000018 -0.000001 0
0.000017 -0.000001 0
0.000017 -0.000001 0
0.000016 -0.000001 0
0.000015 -0.000001 0
0.000015 -0.000000 0
0.000000 0.000000 0
-0.000002 -0.000002 0
-0.000005 -0.000002 0
-0.000006 -0.000002 0
-0.000008 -0.000001 0
-0.000008 0.000000 0
-0.000007 0.000002 0
-0.000005 0.000003 0
-0.000001 0.000004 0
0.000003 0.000004 0
0.000008 0.000004 0
0.000012 0.000003 0
0.000015 0.000002 0
0.000017 0.000001 0
0.000017 0.000000 0
0.000017 -0.000000 0
0.000017 -0.000000 0
0.000016 -0.000001 0
0.000016 -0.000000 0
0.000015 -0.000000 0
0.000015 -0.000000 0
0.000000 0.000000 0
-0.000000 0.000000 0
-0.000000 0.000000 0
0.000000 0.000000 0
0.000000 0.000000 0
-0.000000 0.000000 0
-0.000000 0.000000 0
-0.000000 0.000000 0
-0.000000 0.000000 0
-0.000000 0.000000 0
0.000000 0.000000 0
0.000000 0.000000 0
0.000000 0.000000 0
0.000000 0.000000 0
0.000000 0.000000 0
0.000000 0.000000 0
0.000000 0.000000 0
0.000000 0.000000 0
0.000000 0.000000 0
0.000000 0.000000 0
0.000000 0.000000 0

CELL_DATA 400 
SCALARS pressure float 1 
LOOKUP_TABLE default 
0.242647
0.242660
0.242633
0.242599
0.242578
0.242577
0.242592
0.242615
0.242633
0.242642
0.242640
0.242633
0.242624
0.242618
0.242616
0.242616
0.242618
0.242620
0.242621
0.242622
0.219637
0.219611
0.219597
0.219599
0.219612
0.219627
0.219638
0.219640
0.219633
0.219624
0.219616
0.219612
0.219613
0.219616
0.219619
0.219621
0.219623
0.219623
0.219623
0.219623
0.196599
0.196597
0.196617
0.196639
0.196649
0.196646
0.196632
0.196616
0.196605
0.196602
0.196606
0.196614
0.196621
0.196625
0.196625
0.196625
0.196623
0.196622
0.196622
0.196623
0.173596
0.173620
0.173643
0.173648
0.173637
0.173619
0.173605
0.173598
0.173602
0.173611
0.173620
0.173626
0.173627
0.173626
0.173624
0.173622
0.173621
0.173621
0.173622
0.173622
0.150619
0.150632
0.150632
0.150621
0.150611
0.150606
0.150608
0.150614
0.150621
0.150625
0.150626
0.150624
0.150621
0.150620
0.150619
0.150620
0.150621
0.150621
0.150622
0.150622
0.127626
0.127618
0.127611
0.127610
0.127616
0.127624
0.127628
0.127629
0.127625
0.127620
0.127616
0.127615
0.127616
0.127619
0.127620
0.127622
0.127622
0.127622
0.127623
0.127623
0.104615
0.104609
0.104614
0.104624
0.104633
0.104634
0.104628
0.104620
0.104614
0.104612
0.104613
0.104616
0.104620
0.104622
0.104623
0.104623
0.104622
0.104622
0.104622
0.104623
0.081613
0.081618
0.081626
0.081630
0.081629
0.081623
0.081617
0.081613
0.081613
0.081616
0.081619
0.081621
0.081622
0.081622
0.081622
0.081622
0.081622
0.081622
0.081622
0.081622
0.058622
0.058624
0.058623
0.058621
0.058618
0.058617
0.058618
0.058620
0.058621
0.058622
0.058621
0.058621
0.058620
0.058620
0.058621
0.058621
0.058622
0.058622
0.058622
0.058623
0.035626
0.035620
0.035616
0.035617
0.035620
0.035624
0.035626
0.035626
0.035624
0.035621
0.035620
0.035619
0.035620
0.035621
0.035622
0.035622
0.035623
0.035623
0.035623
0.035623
0.012622
0.012618
0.012618
0.012623
0.012626
0.012627
0.012626
0.012624
0.012621
0.012620
0.012620
0.012621
0.012622
0.012622
0.012623
0.012623
0.012623
0.012623
0.012623
0.012623
-0.010378
-0.010378
-0.010377
-0.010375
-0.010375
-0.010376
-0.010377
-0.010377
-0.010377
-0.010377
-0.010376
-0.010376
-0.010377
-0.010377
-0.010377
-0.010377
-0.010377
-0.010377
-0.010377
-0.010377
-0.033374
-0.033375
-0.033377
-0.033378
-0.033378
-0.033377
-0.033375
-0.033374
-0.033374
-0.033374
-0.033375
-0.033375
-0.033376
-0.033377
-0.033377
-0.033377
-0.033377
-0.033377
-0.033377
-0.033377
-0.056373
-0.056376
-0.056379
-0.056378
-0.056377
-0.056374
-0.056373
-0.056372
-0.056373
-0.056373
-0.056374
-0.056375
-0.056376
-0.056376
-0.056376
-0.056376
-0.056377
-0.056377
-0.056377
-0.056377
-0.079374
-0.079376
-0.079377
-0.079376
-0.079375
-0.079374
-0.079373
-0.079373
-0.079373
-0.079374
-0.079374
-0.079374
-0.079375
-0.079375
-0.079376
-0.079376
-0.079376
-0.079377
-0.079377
-0.079377
-0.102374
-0.102375
-0.102375
-0.102375
-0.102375
-0.102375
-0.102374
-0.102373
-0.102373
-0.102373
-0.102373
-0.102374
-0.102374
-0.102375
-0.102376
-0.102376
-0.102376
-0.102377
-0.102377
-0.102377
-0.125374
-0.125374
-0.125374
-0.125375
-0.125376
-0.125375
-0.125374
-0.125373
-0.125373
-0.125373
-0.125373
-0.125374
-0.125374
-0.125375
-0.125375
-0.125376
-0.125376
-0.125377
-0.125377
-0.125377
-0.148374
-0.148374
-0.148375
-0.148375
-0.148375
-0.148374
-0.148373
-0.148373
-0.148373
-0.148373
-0.148373
-0.148374
-0.148374
-0.148375
-0.148375
-0.148376
-0.148376
-0.148377
-0.148377
-0.148377
-0.171374
-0.171374
-0.171374
-0.171374
-0.171374
-0.171374
-0.171374
-0.171373
-0.171373
-0.171373
-0.171373
-0.171374
-0.171374
-0.171375
-0.171375
-0.171376
-0.171376
-0.171376
-0.171377
-0.171377
-0.194374
-0.194374
-0.194374
-0.194374
-0.194374
-0.194374
-0.194374
-0.194374
-0.194373
-0.194373
-0.194373
-0.194374
-0.194374
-0.194375
-0.194375
-0.194376
-0.194376
-0.194376
-0.194377
-0.194377

SCALARS temperature float 1 
LOOKUP_TABLE default 
0.000000
0.000003
0.000008
0.000017
0.000030
0.000046
0.000064
0.000080
0.000090
0.000091
0.000083
0.000069
0.000052
0.000036
0.000023
0.000014
0.000008
0.000004
0.000002
0.000002
0.000000
0.000004
0.000012
0.000026
0.000046
0.000072
0.000100
0.000125
0.000140
0.000142
0.000129
0.000107
0.000080
0.000055
0.000035
0.000021
0.000011
0.000006
0.000004
0.000002
0.000001
0.000008
0.000023
0.000049
0.000089
0.000140
0.000196
0.000246
0.000276
0.000278
0.000253
0.000207
0.000154
0.000105
0.000065
0.000038
0.000021
0.000011
0.000006
0.000004
0.000002
0.000015
0.000046
0.000101
0.000184
0.000292
0.000412
0.000519
0.000584
0.000587
0.000530
0.000430
0.000315
0.000211
0.000130
0.000074
0.000040
0.000021
0.000012
0.000008
0.000003
0.000030
0.000091
0.000201
0.000371
0.000597
0.000851
0.001081
0.001220
0.001225
0.001096
0.000879
0.000635
0.000418
0.000252
0.000142
0.000076
0.000040
0.000022
0.000015
0.000006
0.000055
0.000170
0.000378
0.000707
0.001154
0.001671
0.002144
0.002434
0.002440
0.002163
0.001708
0.001212
0.000781
0.000463
0.000256
0.000134
0.000069
0.000038
0.000026
0.000010
0.000093
0.000290
0.000657
0.001247
0.002075
0.003057
0.003980
0.004551
0.004554
0.003996
0.003100
0.002153
0.001358
0.000788
0.000427
0.000220
0.000112
0.000061
0.000041
0.000015
0.000143
0.000454
0.001041
0.002013
0.003419
0.005144
0.006813
0.007864
0.007858
0.006812
0.005180
0.003513
0.002162
0.001227
0.000652
0.000331
0.000166
0.000089
0.000060
0.000021
0.000201
0.000640
0.001490
0.002932
0.005087
0.007826
0.010564
0.012323
0.012301
0.010527
0.007837
0.005187
0.003117
0.001733
0.000905
0.000453
0.000225
0.000120
0.000080
0.000026
0.000252
0.000810
0.001905
0.003804
0.006719
0.010538
0.014469
0.017045
0.017002
0.014388
0.010516
0.006815
0.004016
0.002195
0.001131
0.000560
0.000276
0.000146
0.000097
0.000030
0.000283
0.000912
0.002155
0.004337
0.007737
0.012270
0.017016
0.020163
0.020107
0.016910
0.012231
0.007834
0.004567
0.002475
0.001267
0.000624
0.000307
0.000162
0.000107
0.000030
0.000283
0.000910
0.002148
0.004317
0.007689
0.012175
0.016865
0.019975
0.019925
0.016773
0.012150
0.007796
0.004554
0.002472
0.001268
0.000626
0.000308
0.000163
0.000108
0.000026
0.000252
0.000807
0.001889
0.003757
0.006608
0.010323
0.014133
0.016628
0.016598
0.014083
0.010335
0.006731
0.003987
0.002191
0.001135
0.000565
0.000280
0.000149
0.000099
0.000021
0.000201
0.000639
0.001479
0.002891
0.004985
0.007624
0.010250
0.011937
0.011928
0.010245
0.007672
0.005114
0.003099
0.001737
0.000915
0.000462
0.000232
0.000125
0.000084
0.000015
0.000146
0.000459
0.001044
0.002002
0.003373
0.005040
0.006643
0.007653
0.007657
0.006667
0.005106
0.003494
0.002174
0.001248
0.000671
0.000345
0.000176
0.000096
0.000065
0.000010
0.000097
0.000302
0.000678
0.001274
0.002099
0.003067
0.003971
0.004531
0.004540
0.004004
0.003132
0.002200
0.001405
0.000827
0.000455
0.000239
0.000124
0.000068
0.000047
0.000007
0.000061
0.000188
0.000415
0.000765
0.001236
0.001773
0.002261
0.002560
0.002570
0.002292
0.001827
0.001313
0.000860
0.000518
0.000292
0.000156
0.000082
0.000046
0.000032
0.000004
0.000038
0.000115
0.000250
0.000453
0.000720
0.001017
0.001282
0.001443
0.001451
0.001307
0.001058
0.000776
0.000519
0.000320
0.000184
0.000100
0.000054
0.000031
0.000021
0.000003
0.000024
0.000074
0.000159
0.000285
0.000447
0.000624
0.000780
0.000875
0.000881
0.000800
0.000656
0.000488
0.000332
0.000209
0.000122
0.000068
0.000037
0.000021
0.000015
0.000002
0.000019
0.000056
0.000120
0.000213
0.000332
0.000461
0.000574
0.000642
0.000648
0.000591
0.000488
0.000367
0.000252
0.000160
0.000095
0.000053
0.000029
0.000017
0.000012


SCALARS Species_1 float 1 
LOOKUP_TABLE default 
0.000217
0.000684
0.001247
0.001955
0.002842
0.003916
0.005153
0.006494
0.007842
0.009081
0.010086
0.010753
0.011016
0.010865
0.010351
0.009580
0.008696
0.007855
0.007202
0.006846
0.000237
0.000747
0.001360
0.002129
0.003089
0.004251
0.005587
0.007031
0.008481
0.009811
0.010889
0.011602
0.011881
0.011716
0.011162
0.010334
0.009385
0.008483
0.007783
0.007402
0.000273
0.000858
0.001560
0.002438
0.003533
0.004854
0.006370
0.008005
0.009645
0.011146
0.012360
0.013160
0.013468
0.013276
0.012646
0.011708
0.010635
0.009617
0.008827
0.008398
0.000319
0.001004
0.001823
0.002846
0.004118
0.005649
0.007403
0.009292
0.011184
0.012911
0.014305
0.015219
0.015567
0.015338
0.014607
0.013523
0.012285
0.011112
0.010203
0.009709
0.000371
0.001167
0.002116
0.003299
0.004767
0.006532
0.008550
0.010722
0.012891
0.014870
0.016463
0.017505
0.017896
0.017626
0.016782
0.015535
0.014115
0.012770
0.011730
0.011164
0.000422
0.001325
0.002400
0.003737
0.005395
0.007384
0.009657
0.012098
0.014535
0.016754
0.018537
0.019701
0.020134
0.019825
0.018874
0.017472
0.015877
0.014369
0.013202
0.012569
0.000464
0.001456
0.002636
0.004100
0.005914
0.008087
0.010566
0.013228
0.015882
0.018296
0.020235
0.021497
0.021964
0.021625
0.020586
0.019060
0.017324
0.015683
0.014415
0.013727
0.000491
0.001542
0.002789
0.004336
0.006248
0.008538
0.011148
0.013947
0.016737
0.019273
0.021308
0.022632
0.023120
0.022762
0.021671
0.020068
0.018247
0.016525
0.015194
0.014472
0.000500
0.001570
0.002838
0.004409
0.006349
0.008670
0.011314
0.014148
0.016971
0.019536
0.021593
0.022932
0.023426
0.023065
0.021963
0.020344
0.018505
0.016767
0.015423
0.014694
0.000489
0.001535
0.002773
0.004306
0.006198
0.008459
0.011034
0.013792
0.016539
0.019035
0.021037
0.022340
0.022822
0.022474
0.021406
0.019836
0.018051
0.016364
0.015059
0.014351
0.000459
0.001441
0.002603
0.004039
0.005811
0.007928
0.010337
0.012918
0.015486
0.017821
0.019695
0.020915
0.021370
0.021050
0.020057
0.018594
0.016930
0.015355
0.014138
0.013477
0.000414
0.001299
0.002346
0.003639
0.005234
0.007138
0.009304
0.011624
0.013934
0.016035
0.017721
0.018822
0.019236
0.018953
0.018067
0.016758
0.015267
0.013856
0.012764
0.012171
0.000359
0.001125
0.002031
0.003151
0.004530
0.006176
0.008050
0.010056
0.012054
0.013871
0.015332
0.016288
0.016651
0.016414
0.015654
0.014528
0.013244
0.012028
0.011086
0.010575
0.000299
0.000937
0.001692
0.002624
0.003771
0.005142
0.006700
0.008370
0.010033
0.011548
0.012767
0.013567
0.013875
0.013684
0.013058
0.012128
0.011064
0.010055
0.009273
0.008848
0.000240
0.000752
0.001357
0.002105
0.003026
0.004125
0.005376
0.006716
0.008052
0.009270
0.010251
0.010899
0.011152
0.011004
0.010508
0.009766
0.008916
0.008109
0.007483
0.007143
0.000186
0.000583
0.001054
0.001634
0.002349
0.003203
0.004174
0.005216
0.006255
0.007204
0.007970
0.008477
0.008679
0.008570
0.008190
0.007618
0.006961
0.006336
0.005850
0.005586
0.000141
0.000442
0.000798
0.001238
0.001780
0.002427
0.003165
0.003956
0.004746
0.005468
0.006053
0.006442
0.006600
0.006523
0.006238
0.005808
0.005312
0.004839
0.004471
0.004270
0.000106
0.000333
0.000601
0.000933
0.001342
0.001831
0.002388
0.002987
0.003585
0.004133
0.004578
0.004877
0.005001
0.004946
0.004735
0.004412
0.004039
0.003683
0.003405
0.003253
0.000082
0.000259
0.000468
0.000727
0.001047
0.001429
0.001865
0.002334
0.002804
0.003235
0.003586
0.003822
0.003923
0.003883
0.003721
0.003471
0.003180
0.002901
0.002684
0.002565
0.000071
0.000222
0.000402
0.000624
0.000899
0.001227
0.001603
0.002007
0.002412
0.002784
0.003088
0.003294
0.003382
0.003350
0.003212
0.002998
0.002748
0.002508
0.002321
0.002219


SCALARS Species_2 float 1 
LOOKUP_TABLE default 
0.000143
0.000420
0.000669
0.000874
0.001020
0.001100
0.001116
0.001072
0.000981
0.000858
0.000719
0.000577
0.000446
0.000331
0.000236
0.000163
0.000109
0.000073
0.000050
0.000039
0.000181
0.000531
0.000846
0.001103
0.001286
0.001387
0.001405
0.001350
0.001235
0.001080
0.000904
0.000726
0.000560
0.000416
0.000297
0.000205
0.000138
0.000092
0.000063
0.000049
0.000258
0.000758
0.001206
0.001570
0.001829
0.001971
0.001995
0.001915
0.001750
0.001529
0.001280
0.001028
0.000793
0.000588
0.000421
0.000291
0.000195
0.000130
0.000089