# vtk DataFile Version 2.0
generated by CFD-lab course output (written by Tobias Neckel) 
ASCII

DATASET STRUCTURED_GRID
DIMENSIONS  21 21 1 
POINTS 441 float

0.000000 0.000000 0
0.100000 0.000000 0
0.200000 0.000000 0
0.300000 0.000000 0
0.400000 0.000000 0
0.500000 0.000000 0
0.600000 0.000000 0
0.700000 0.000000 0
0.800000 0.000000 0
0.900000 0.000000 0
1.000000 0.000000 0
1.100000 0.000000 0
1.200000 0.000000 0
1.300000 0.000000 0
1.400000 0.000000 0
1.500000 0.000000 0
1.600000 0.000000 0
1.700000 0.000000 0
1.800000 0.000000 0
1.900000 0.000000 0
2.000000 0.000000 0
0.000000 0.100000 0
0.100000 0.100000 0
0.200000 0.100000 0
0.300000 0.100000 0
0.400000 0.100000 0
0.500000 0.100000 0
0.600000 0.100000 0
0.700000 0.100000 0
0.800000 0.100000 0
0.900000 0.100000 0
1.000000 0.100000 0
1.100000 0.100000 0
1.200000 0.100000 0
1.300000 0.100000 0
1.400000 0.100000 0
1.500000 0.100000 0
1.600000 0.100000 0
1.700000 0.100000 0
1.800000 0.100000 0
1.900000 0.100000 0
2.000000 0.100000 0
0.000000 0.200000 0
0.100000 0.200000 0
0.200000 0.200000 0
0.300000 0.200000 0
0.400000 0.200000 0
0.500000 0.200000 0
0.600000 0.200000 0
0.700000 0.200000 0
0.800000 0.200000 0
0.900000 0.200000 0
1.000000 0.200000 0
1.100000 0.200000 0
1.200000 0.200000 0
1.300000 0.200000 0
1.400000 0.200000 0
1.500000 0.200000 0
1.600000 0.200000 0
1.700000 0.200000 0
1.800000 0.200000 0
1.900000 0.200000 0
2.000000 0.200000 0
0.000000 0.300000 0
0.100000 0.300000 0
0.200000 0.300000 0
0.300000 0.300000 0
0.400000 0.300000 0
0.500000 0.300000 0
0.600000 0.300000 0
0.700000 0.300000 0
0.800000 0.300000 0
0.900000 0.300000 0
1.000000 0.300000 0
1.100000 0.300000 0
1.200000 0.300000 0
1.300000 0.300000 0
1.400000 0.300000 0
1.500000 0.300000 0
1.600000 0.300000 0
1.700000 0.300000 0
1.800000 0.300000 0
1.900000 0.300000 0
2.000000 0.300000 0
0.000000 0.400000 0
0.100000 0.400000 0
0.200000 0.400000 0
0.300000 0.400000 0
0.400000 0.400000 0
0.500000 0.400000 0
0.600000 0.400000 0
0.700000 0.400000 0
0.800000 0.400000 0
0.900000 0.400000 0
1.000000 0.400000 0
1.100000 0.400000 0
1.200000 0.400000 0
1.300000 0.400000 0
1.400000 0.400000 0
1.500000 0.400000 0
1.600000 0.400000 0
1.700000 0.400000 0
1.800000 0.400000 0
1.900000 0.400000 0
2.000000 0.400000 0
0.000000 0.500000 0
0.100000 0.500000 0
0.200000 0.500000 0
0.300000 0.500000 0
0.400000 0.500000 0
0.500000 0.500000 0
0.600000 0.500000 0
0.700000 0.500000 0
0.800000 0.500000 0
0.900000 0.500000 0
1.000000 0.500000 0
1.100000 0.500000 0
1.200000 0.500000 0
1.300000 0.500000 0
1.400000 0.500000 0
1.500000 0.500000 0
1.600000 0.500000 0
1.700000 0.500000 0
1.800000 0.500000 0
1.900000 0.500000 0
2.000000 0.500000 0
0.000000 0.600000 0
0.100000 0.600000 0
0.200000 0.600000 0
0.300000 0.600000 0
0.400000 0.600000 0
0.500000 0.600000 0
0.600000 0.600000 0
0.700000 0.600000 0
0.800000 0.600000 0
0.900000 0.600000 0
1.000000 0.600000 0
1.100000 0.600000 0
1.200000 0.600000 0
1.300000 0.600000 0
1.400000 0.600000 0
1.500000 0.600000 0
1.600000 0.600000 0
1.700000 0.600000 0
1.800000 0.600000 0
1.900000 0.600000 0
2.000000 0.600000 0
0.000000 0.700000 0
0.100000 0.700000 0
0.200000 0.700000 0
0.300000 0.700000 0
0.400000 0.700000 0
0.500000 0.700000 0
0.600000 0.700000 0
0.700000 0.700000 0
0.800000 0.700000 0
0.900000 0.700000 0
1.000000 0.700000 0
1.100000 0.700000 0
1.200000 0.700000 0
1.300000 0.700000 0
1.400000 0.700000 0
1.500000 0.700000 0
1.600000 0.700000 0
1.700000 0.700000 0
1.800000 0.700000 0
1.900000 0.700000 0
2.000000 0.700000 0
0.000000 0.800000 0
0.100000 0.800000 0
0.200000 0.800000 0
0.300000 0.800000 0
0.400000 0.800000 0
0.500000 0.800000 0
0.600000 0.800000 0
0.700000 0.800000 0
0.800000 0.800000 0
0.900000 0.800000 0
1.000000 0.800000 0
1.100000 0.800000 0
1.200000 0.800000 0
1.300000 0.800000 0
1.400000 0.800000 0
1.500000 0.800000 0
1.600000 0.800000 0
1.700000 0.800000 0
1.800000 0.800000 0
1.900000 0.800000 0
2.000000 0.800000 0
0.000000 0.900000 0
0.100000 0.900000 0
0.200000 0.900000 0
0.300000 0.900000 0
0.400000 0.900000 0
0.500000 0.900000 0
0.600000 0.900000 0
0.700000 0.900000 0
0.800000 0.900000 0
0.900000 0.900000 0
1.000000 0.900000 0
1.100000 0.900000 0
1.200000 0.900000 0
1.300000 0.900000 0
1.400000 0.900000 0
1.500000 0.900000 0
1.600000 0.900000 0
1.700000 0.900000 0
1.800000 0.900000 0
1.900000 0.900000 0
2.000000 0.900000 0
0.000000 1.000000 0
0.100000 1.000000 0
0.200000 1.000000 0
0.300000 1.000000 0
0.400000 1.000000 0
0.500000 1.000000 0
0.600000 1.000000 0
0.700000 1.000000 0
0.800000 1.000000 0
0.900000 1.000000 0
1.000000 1.000000 0
1.100000 1.000000 0
1.200000 1.000000 0
1.300000 1.000000 0
1.400000 1.000000 0
1.500000 1.000000 0
1.600000 1.000000 0
1.700000 1.000000 0
1.800000 1.000000 0
1.900000 1.000000 0
2.000000 1.000000 0
0.000000 1.100000 0
0.100000 1.100000 0
0.200000 1.100000 0
0.300000 1.100000 0
0.400000 1.100000 0
0.500000 1.100000 0
0.600000 1.100000 0
0.700000 1.100000 0
0.800000 1.100000 0
0.900000 1.100000 0
1.000000 1.100000 0
1.100000 1.100000 0
1.200000 1.100000 0
1.300000 1.100000 0
1.400000 1.100000 0
1.500000 1.100000 0
1.600000 1.100000 0
1.700000 1.100000 0
1.800000 1.100000 0
1.900000 1.100000 0
2.000000 1.100000 0
0.000000 1.200000 0
0.100000 1.200000 0
0.200000 1.200000 0
0.300000 1.200000 0
0.400000 1.200000 0
0.500000 1.200000 0
0.600000 1.200000 0
0.700000 1.200000 0
0.800000 1.200000 0
0.900000 1.200000 0
1.000000 1.200000 0
1.100000 1.200000 0
1.200000 1.200000 0
1.300000 1.200000 0
1.400000 1.200000 0
1.500000 1.200000 0
1.600000 1.200000 0
1.700000 1.200000 0
1.800000 1.200000 0
1.900000 1.200000 0
2.000000 1.200000 0
0.000000 1.300000 0
0.100000 1.300000 0
0.200000 1.300000 0
0.300000 1.300000 0
0.400000 1.300000 0
0.500000 1.300000 0
0.600000 1.300000 0
0.700000 1.300000 0
0.800000 1.300000 0
0.900000 1.300000 0
1.000000 1.300000 0
1.100000 1.300000 0
1.200000 1.300000 0
1.300000 1.300000 0
1.400000 1.300000 0
1.500000 1.300000 0
1.600000 1.300000 0
1.700000 1.300000 0
1.800000 1.300000 0
1.900000 1.300000 0
2.000000 1.300000 0
0.000000 1.400000 0
0.100000 1.400000 0
0.200000 1.400000 0
0.300000 1.400000 0
0.400000 1.400000 0
0.500000 1.400000 0
0.600000 1.400000 0
0.700000 1.400000 0
0.800000 1.400000 0
0.900000 1.400000 0
1.000000 1.400000 0
1.100000 1.400000 0
1.200000 1.400000 0
1.300000 1.400000 0
1.400000 1.400000 0
1.500000 1.400000 0
1.600000 1.400000 0
1.700000 1.400000 0
1.800000 1.400000 0
1.900000 1.400000 0
2.000000 1.400000 0
0.000000 1.500000 0
0.100000 1.500000 0
0.200000 1.500000 0
0.300000 1.500000 0
0.400000 1.500000 0
0.500000 1.500000 0
0.600000 1.500000 0
0.700000 1.500000 0
0.800000 1.500000 0
0.900000 1.500000 0
1.000000 1.500000 0
1.100000 1.500000 0
1.200000 1.500000 0
1.300000 1.500000 0
1.400000 1.500000 0
1.500000 1.500000 0
1.600000 1.500000 0
1.700000 1.500000 0
1.800000 1.500000 0
1.900000 1.500000 0
2.000000 1.500000 0
0.000000 1.600000 0
0.100000 1.600000 0
0.200000 1.600000 0
0.300000 1.600000 0
0.400000 1.600000 0
0.500000 1.600000 0
0.600000 1.600000 0
0.700000 1.600000 0
0.800000 1.600000 0
0.900000 1.600000 0
1.000000 1.600000 0
1.100000 1.600000 0
1.200000 1.600000 0
1.300000 1.600000 0
1.400000 1.600000 0
1.500000 1.600000 0
1.600000 1.600000 0
1.700000 1.600000 0
1.800000 1.600000 0
1.900000 1.600000 0
2.000000 1.600000 0
0.000000 1.700000 0
0.100000 1.700000 0
0.200000 1.700000 0
0.300000 1.700000 0
0.400000 1.700000 0
0.500000 1.700000 0
0.600000 1.700000 0
0.700000 1.700000 0
0.800000 1.700000 0
0.900000 1.700000 0
1.000000 1.700000 0
1.100000 1.700000 0
1.200000 1.700000 0
1.300000 1.700000 0
1.400000 1.700000 0
1.500000 1.700000 0
1.600000 1.700000 0
1.700000 1.700000 0
1.800000 1.700000 0
1.900000 1.700000 0
2.000000 1.700000 0
0.000000 1.800000 0
0.100000 1.800000 0
0.200000 1.800000 0
0.300000 1.800000 0
0.400000 1.800000 0
0.500000 1.800000 0
0.600000 1.800000 0
0.700000 1.800000 0
0.800000 1.800000 0
0.900000 1.800000 0
1.000000 1.800000 0
1.100000 1.800000 0
1.200000 1.800000 0
1.300000 1.800000 0
1.400000 1.800000 0
1.500000 1.800000 0
1.600000 1.800000 0
1.700000 1.800000 0
1.800000 1.800000 0
1.900000 1.800000 0
2.000000 1.800000 0
0.000000 1.900000 0
0.100000 1.900000 0
0.200000 1.900000 0
0.300000 1.900000 0
0.400000 1.900000 0
0.500000 1.900000 0
0.600000 1.900000 0
0.700000 1.900000 0
0.800000 1.900000 0
0.900000 1.900000 0
1.000000 1.900000 0
1.100000 1.900000 0
1.200000 1.900000 0
1.300000 1.900000 0
1.400000 1.900000 0
1.500000 1.900000 0
1.600000 1.900000 0
1.700000 1.900000 0
1.800000 1.900000 0
1.900000 1.900000 0
2.000000 1.900000 0
0.000000 2.000000 0
0.100000 2.000000 0
0.200000 2.000000 0
0.300000 2.000000 0
0.400000 2.000000 0
0.500000 2.000000 0
0.600000 2.000000 0
0.700000 2.000000 0
0.800000 2.000000 0
0.900000 2.000000 0
1.000000 2.000000 0
1.100000 2.000000 0
1.200000 2.000000 0
1.300000 2.000000 0
1.400000 2.000000 0
1.500000 2.000000 0
1.600000 2.000000 0
1.700000 2.000000 0
1.800000 2.000000 0
1.900000 2.000000 0
2.000000 2.000000 0
POINT_DATA 441 

VECTORS velocity float
0.000000 0.000000 0
-0.000007 0.000000 0
-0.000009 0.000000 0
-0.000004 0.000000 0
0.000003 0.000000 0
0.000006 0.000000 0
0.000006 0.000000 0
0.000003 0.000000 0
-0.000001 0.000000 0
-0.000003 0.000000 0
-0.000003 0.000000 0
-0.000002 0.000000 0
-0.000001 0.000000 0
0.000000 0.000000 0
0.000001 0.000000 0
0.000000 0.000000 0
0.000000 0.000000 0
-0.000000 0.000000 0
-0.000000 0.000000 0
-0.000000 0.000000 0
-0.000000 0.000000 0
0.000000 -0.000011 0
0.000006 -0.000022 0
0.000017 -0.000016 0
0.000029 -0.000002 0
0.000038 0.000011 0
0.000040 0.000017 0
0.000033 0.000017 0
0.000020 0.000014 0
0.000001 0.000011 0
-0.000020 0.000011 0
-0.000040 0.000012 0
-0.000059 0.000013 0
-0.000074 0.000013 0
-0.000086 0.000011 0
-0.000093 0.000008 0
-0.000098 0.000005 0
-0.000100 0.000002 0
-0.000101 0.000000 0
-0.000100 -0.000000 0
-0.000100 -0.000000 0
-0.000099 -0.000000 0
0.000000 -0.000004 0
0.000012 -0.000024 0
0.000028 -0.000013 0
0.000039 -0.000004 0
0.000042 0.000001 0
0.000040 0.000005 0
0.000032 0.000011 0
0.000019 0.000020 0
0.000002 0.000030 0
-0.000019 0.000037 0
-0.000042 0.000040 0
-0.000063 0.000038 0
-0.000081 0.000031 0
-0.000094 0.000022 0
-0.000103 0.000014 0
-0.000107 0.000007 0
-0.000109 0.000002 0
-0.000108 -0.000000 0
-0.000107 -0.000001 0
-0.000107 -0.000001 0
-0.000106 -0.000001 0
0.000000 0.000005 0
0.000020 -0.000030 0
0.000032 -0.000029 0
0.000040 -0.000024 0
0.000044 -0.000014 0
0.000044 0.000002 0
0.000040 0.000023 0
0.000028 0.000044 0
0.000009 0.000060 0
-0.000016 0.000067 0
-0.000043 0.000066 0
-0.000067 0.000057 0
-0.000087 0.000044 0
-0.000100 0.000030 0
-0.000107 0.000018 0
-0.000110 0.000008 0
-0.000110 0.000002 0
-0.000108 -0.000001 0
-0.000106 -0.000002 0
-0.000105 -0.000002 0
-0.000105 -0.000001 0
0.000000 0.000002 0
0.000019 -0.000049 0
0.000032 -0.000050 0
0.000044 -0.000038 0
0.000054 -0.000016 0
0.000058 0.000012 0
0.000054 0.000041 0
0.000039 0.000068 0
0.000015 0.000086 0
-0.000015 0.000093 0
-0.000047 0.000089 0
-0.000075 0.000076 0
-0.000095 0.000058 0
-0.000107 0.000039 0
-0.000112 0.000022 0
-0.000112 0.000010 0
-0.000110 0.000001 0
-0.000107 -0.000003 0
-0.000104 -0.000004 0
-0.000102 -0.000002 0
-0.000102 -0.000001 0
0.000000 -0.000003 0
0.000017 -0.000071 0
0.000036 -0.000066 0
0.000054 -0.000046 0
0.000067 -0.000018 0
0.000073 0.000016 0
0.000068 0.000052 0
0.000051 0.000085 0
0.000022 0.000111 0
-0.000014 0.000123 0
-0.000051 0.000119 0
-0.000082 0.000101 0
-0.000103 0.000075 0
-0.000114 0.000048 0
-0.000116 0.000025 0
-0.000114 0.000008 0
-0.000109 -0.000002 0
-0.000104 -0.000007 0
-0.000099 -0.000007 0
-0.000097 -0.000004 0
-0.000097 -0.000002 0
0.000000 -0.000001 0
0.000019 -0.000088 0
0.000042 -0.000081 0
0.000063 -0.000060 0
0.000077 -0.000030 0
0.000085 0.000010 0
0.000081 0.000058 0
0.000063 0.000107 0
0.000031 0.000146 0
-0.000012 0.000164 0
-0.000055 0.000157 0
-0.000089 0.000130 0
-0.000111 0.000092 0
-0.000119 0.000054 0
-0.000119 0.000023 0
-0.000113 0.000002 0
-0.000105 -0.000009 0
-0.000098 -0.000013 0
-0.000092 -0.000011 0
-0.000089 -0.000005 0
-0.000089 -0.000002 0
0.000000 0.000001 0
0.000021 -0.000107 0
0.000044 -0.000103 0
0.000064 -0.000082 0
0.000081 -0.000047 0
0.000092 0.000004 0
0.000092 0.000068 0
0.000075 0.000135 0
0.000040 0.000189 0
-0.000008 0.000213 0
-0.000057 0.000200 0
-0.000094 0.000159 0
-0.000115 0.000105 0
-0.000120 0.000055 0
-0.000115 0.000017 0
-0.000106 -0.000006 0
-0.000096 -0.000018 0
-0.000087 -0.000020 0
-0.000080 -0.000016 0
-0.000077 -0.000007 0
-0.000077 -0.000002 0
0.000000 0.000001 0
0.000018 -0.000128 0
0.000039 -0.000128 0
0.000060 -0.000104 0
0.000078 -0.000063 0
0.000091 -0.000001 0
0.000094 0.000078 0
0.000079 0.000163 0
0.000044 0.000233 0
-0.000006 0.000263 0
-0.000055 0.000244 0
-0.000092 0.000186 0
-0.000109 0.000116 0
-0.000110 0.000053 0
-0.000102 0.000009 0
-0.000091 -0.000017 0
-0.000080 -0.000028 0
-0.000071 -0.000028 0
-0.000064 -0.000021 0
-0.000061 -0.000009 0
-0.000061 -0.000002 0
0.000000 -0.000001 0
0.000013 -0.000148 0
0.000030 -0.000147 0
0.000048 -0.000122 0
0.000064 -0.000077 0
0.000076 -0.000009 0
0.000079 0.000083 0
0.000068 0.000186 0
0.000039 0.000273 0
-0.000003 0.000311 0
-0.000045 0.000284 0
-0.000074 0.000211 0
-0.000086 0.000123 0
-0.000085 0.000049 0
-0.000077 -0.000002 0
-0.000066 -0.000029 0
-0.000056 -0.000038 0
-0.000049 -0.000036 0
-0.000043 -0.000025 0
-0.000040 -0.000011 0
-0.000040 -0.000003 0
0.000000 -0.000001 0
0.000007 -0.000160 0
0.000017 -0.000159 0
0.000027 -0.000134 0
0.000036 -0.000089 0
0.000044 -0.000017 0
0.000046 0.000084 0
0.000041 0.000201 0
0.000024 0.000303 0
0.000000 0.000347 0
-0.000024 0.000315 0
-0.000040 0.000228 0
-0.000046 0.000127 0
-0.000044 0.000044 0
-0.000039 -0.000010 0
-0.000032 -0.000038 0
-0.000026 -0.000046 0
-0.000021 -0.000041 0
-0.000018 -0.000029 0
-0.000017 -0.000012 0
-0.000017 -0.000003 0
0.000000 0.000000 0
-0.000000 -0.000163 0
0.000001 -0.000164 0
0.000001 -0.000140 0
0.000001 -0.000095 0
0.000001 -0.000021 0
0.000001 0.000084 0
0.000001 0.000207 0
0.000003 0.000314 0
0.000004 0.000360 0
0.000005 0.000326 0
0.000006 0.000234 0
0.000007 0.000128 0
0.000007 0.000042 0
0.000008 -0.000014 0
0.000008 -0.000041 0
0.000009 -0.000049 0
0.000009 -0.000044 0
0.000009 -0.000030 0
0.000009 -0.000012 0
0.000009 -0.000003 0
0.000000 0.000000 0
-0.000008 -0.000159 0
-0.000016 -0.000160 0
-0.000025 -0.000136 0
-0.000034 -0.000091 0
-0.000042 -0.000018 0
-0.000044 0.000083 0
-0.000037 0.000201 0
-0.000019 0.000301 0
0.000007 0.000345 0
0.000034 0.000313 0
0.000052 0.000227 0
0.000059 0.000126 0
0.000059 0.000043 0
0.000054 -0.000011 0
0.000048 -0.000039 0
0.000043 -0.000047 0
0.000040 -0.000042 0
0.000037 -0.000029 0
0.000036 -0.000012 0
0.000036 -0.000003 0
0.000000 -0.000000 0
-0.000014 -0.000148 0
-0.000030 -0.000147 0
-0.000047 -0.000122 0
-0.000062 -0.000078 0
-0.000073 -0.000011 0
-0.000077 0.000080 0
-0.000065 0.000183 0
-0.000034 0.000269 0
0.000010 0.000306 0
0.000054 0.000281 0
0.000085 0.000208 0
0.000099 0.000121 0
0.000100 0.000047 0
0.000092 -0.000003 0
0.000083 -0.000031 0
0.000074 -0.000040 0
0.000067 -0.000037 0
0.000063 -0.000026 0
0.000060 -0.000011 0
0.000060 -0.000002 0
0.000000 -0.000000 0
-0.000019 -0.000130 0
-0.000039 -0.000127 0
-0.000060 -0.000103 0
-0.000078 -0.000063 0
-0.000090 -0.000003 0
-0.000092 0.000074 0
-0.000076 0.000157 0
-0.000039 0.000226 0
0.000012 0.000256 0
0.000064 0.000238 0
0.000102 0.000182 0
0.000121 0.000112 0
0.000125 0.000050 0
0.000119 0.000005 0
0.000109 -0.000020 0
0.000099 -0.000031 0
0.000091 -0.000030 0
0.000085 -0.000022 0
0.000082 -0.000009 0
0.000082 -0.000002 0
0.000000 -0.000000 0
-0.000021 -0.000108 0
-0.000044 -0.000105 0
-0.000065 -0.000083 0
-0.000083 -0.000047 0
-0.000094 0.000002 0
-0.000093 0.000064 0
-0.000074 0.000129 0
-0.000036 0.000181 0
0.000015 0.000204 0
0.000066 0.000192 0
0.000105 0.000151 0
0.000128 0.000099 0
0.000136 0.000049 0
0.000133 0.000012 0
0.000126 -0.000011 0
0.000117 -0.000022 0
0.000109 -0.000023 0
0.000103 -0.000017 0
0.000100 -0.000008 0
0.000099 -0.000002 0
0.000000 -0.000000 0
-0.000021 -0.000086 0
-0.000045 -0.000082 0
-0.000066 -0.000063 0
-0.000082 -0.000034 0
-0.000090 0.000006 0
-0.000085 0.000053 0
-0.000065 0.000101 0
-0.000030 0.000138 0
0.000016 0.000155 0
0.000063 0.000147 0
0.000102 0.000119 0
0.000126 0.000082 0
0.000138 0.000045 0
0.000139 0.000015 0
0.000135 -0.000004 0
0.000128 -0.000014 0
0.000122 -0.000016 0
0.000117 -0.000013 0
0.000114 -0.000006 0
0.000113 -0.000002 0
0.000000 -0.000000 0
-0.000021 -0.000064 0
-0.000044 -0.000061 0
-0.000064 -0.000046 0
-0.000078 -0.000023 0
-0.000083 0.000007 0
-0.000077 0.000040 0
-0.000057 0.000073 0
-0.000024 0.000099 0
0.000017 0.000111 0
0.000060 0.000106 0
0.000096 0.000088 0
0.000121 0.000062 0
0.000136 0.000037 0
0.000141 0.000015 0
0.000140 -0.000000 0
0.000136 -0.000009 0
0.000131 -0.000011 0
0.000127 -0.000009 0
0.000124 -0.000004 0
0.000124 -0.000001 0
0.000000 -0.000000 0
-0.000021 -0.000042 0
-0.000044 -0.000040 0
-0.000063 -0.000029 0
-0.000075 -0.000014 0
-0.000079 0.000005 0
-0.000071 0.000027 0
-0.000051 0.000047 0
-0.000020 0.000063 0
0.000018 0.000071 0
0.000057 0.000068 0
0.000091 0.000057 0
0.000118 0.000042 0
0.000134 0.000025 0
0.000142 0.000011 0
0.000143 0.000001 0
0.000141 -0.000005 0
0.000137 -0.000007 0
0.000133 -0.000006 0
0.000131 -0.000003 0
0.000131 -0.000001 0
0.000000 -0.000000 0
-0.000021 -0.000020 0
-0.000042 -0.000019 0
-0.000060 -0.000014 0
-0.000072 -0.000007 0
-0.000075 0.000002 0
-0.000067 0.000013 0
-0.000048 0.000022 0
-0.000019 0.000030 0
0.000016 0.000033 0
0.000052 0.000032 0
0.000084 0.000027 0
0.000109 0.000020 0
0.000126 0.000012 0
0.000134 0.000005 0
0.000137 0.000001 0
0.000135 -0.000002 0
0.000132 -0.000003 0
0.000128 -0.000003 0
0.000126 -0.000001 0
0.000126 -0.000000 0
0.000000 0.000000 0
-0.000000 0.000000 0
-0.000000 0.000000 0
-0.000000 0.000000 0
-0.000000 0.000000 0
-0.000000 0.000000 0
-0.000000 0.000000 0
-0.000000 0.000000 0
-0.000000 0.000000 0
-0.000000 0.000000 0
0.000000 0.000000 0
0.000000 0.000000 0
0.000000 0.000000 0
0.000000 0.000000 0
0.000000 0.000000 0
0.000000 0.000000 0
0.000000 0.000000 0
0.000000 0.000000 0
0.000000 0.000000 0
0.000000 0.000000 0
0.000000 0.000000 0

CELL_DATA 400 
SCALARS pressure float 1 
LOOKUP_TABLE default 
0.242578
0.242606
0.242642
0.242657
0.242647
0.242622
0.242599
0.242588
0.242590
0.242600
0.242612
0.242620
0.242623
0.242622
0.242620
0.242618
0.242617
0.242618
0.242619
0.242619
0.219622
0.219634
0.219626
0.219610
0.219597
0.219595
0.219602
0.219612
0.219620
0.219623
0.219622
0.219619
0.219616
0.219615
0.219615
0.219616
0.219617
0.219618
0.219619
0.219620
0.196638
0.196612
0.196593
0.196591
0.196604
0.196620
0.196631
0.196632
0.196627
0.196618
0.196612
0.196609
0.196610
0.196612
0.196615
0.196617
0.196618
0.196619
0.196620
0.196620
0.173618
0.173599
0.173600
0.173613
0.173627
0.173633
0.173630
0.173622
0.173613
0.173608
0.173607
0.173609
0.173613
0.173616
0.173618
0.173619
0.173619
0.173619
0.173620
0.173620
0.150610
0.150613
0.150619
0.150623
0.150622
0.150619
0.150614
0.150611
0.150610
0.150611
0.150613
0.150615
0.150617
0.150618
0.150618
0.150618
0.150619
0.150619
0.150620
0.150620
0.127622
0.127624
0.127619
0.127612
0.127608
0.127609
0.127612
0.127616
0.127618
0.127618
0.127618
0.127617
0.127616
0.127616
0.127617
0.127618
0.127618
0.127619
0.127620
0.127621
0.104627
0.104620
0.104611
0.104607
0.104609
0.104615
0.104620
0.104622
0.104621
0.104618
0.104616
0.104615
0.104615
0.104616
0.104617
0.104618
0.104619
0.104620
0.104620
0.104621
0.081622
0.081617
0.081614
0.081614
0.081617
0.081620
0.081621
0.081620
0.081618
0.081616
0.081615
0.081615
0.081616
0.081617
0.081619
0.081619
0.081620
0.081620
0.081621
0.081621
0.058619
0.058621
0.058621
0.058620
0.058619
0.058618
0.058617
0.058617
0.058617
0.058617
0.058618
0.058618
0.058619
0.058619
0.058620
0.058620
0.058620
0.058621
0.058621
0.058621
0.035622
0.035625
0.035623
0.035619
0.035617
0.035616
0.035617
0.035619
0.035620
0.035621
0.035621
0.035621
0.035620
0.035620
0.035620
0.035621
0.035621
0.035621
0.035622
0.035622
0.012625
0.012625
0.012622
0.012619
0.012619
0.012619
0.012621
0.012623
0.012623
0.012623
0.012623
0.012622
0.012621
0.012621
0.012622
0.012622
0.012622
0.012622
0.012622
0.012622
-0.010376
-0.010376
-0.010377
-0.010377
-0.010377
-0.010377
-0.010376
-0.010376
-0.010375
-0.010376
-0.010376
-0.010376
-0.010376
-0.010377
-0.010377
-0.010377
-0.010377
-0.010377
-0.010377
-0.010377
-0.033376
-0.033374
-0.033373
-0.033374
-0.033374
-0.033375
-0.033375
-0.033375
-0.033374
-0.033373
-0.033373
-0.033374
-0.033374
-0.033375
-0.033375
-0.033376
-0.033376
-0.033376
-0.033377
-0.033377
-0.056375
-0.056372
-0.056372
-0.056373
-0.056374
-0.056374
-0.056374
-0.056373
-0.056372
-0.056371
-0.056371
-0.056372
-0.056373
-0.056373
-0.056374
-0.056375
-0.056375
-0.056376
-0.056376
-0.056377
-0.079373
-0.079372
-0.079372
-0.079372
-0.079372
-0.079372
-0.079372
-0.079371
-0.079370
-0.079370
-0.079370
-0.079371
-0.079372
-0.079372
-0.079373
-0.079374
-0.079375
-0.079375
-0.079376
-0.079376
-0.102373
-0.102372
-0.102371
-0.102371
-0.102370
-0.102370
-0.102370
-0.102370
-0.102369
-0.102369
-0.102369
-0.102370
-0.102371
-0.102371
-0.102372
-0.102373
-0.102374
-0.102375
-0.102375
-0.102376
-0.125372
-0.125371
-0.125370
-0.125369
-0.125369
-0.125369
-0.125369
-0.125369
-0.125369
-0.125369
-0.125369
-0.125369
-0.125370
-0.125371
-0.125371
-0.125372
-0.125373
-0.125374
-0.125375
-0.125376
-0.148372
-0.148371
-0.148370
-0.148369
-0.148369
-0.148369
-0.148369
-0.148369
-0.148368
-0.148368
-0.148368
-0.148368
-0.148369
-0.148370
-0.148371
-0.148372
-0.148373
-0.148374
-0.148374
-0.148375
-0.171371
-0.171370
-0.171370
-0.171369
-0.171369
-0.171368
-0.171368
-0.171368
-0.171367
-0.171367
-0.171367
-0.171368
-0.171369
-0.171369
-0.171370
-0.171371
-0.171372
-0.171373
-0.171374
-0.171375
-0.194371
-0.194370
-0.194370
-0.194369
-0.194368
-0.194367
-0.194367
-0.194367
-0.194367
-0.194367
-0.194367
-0.194367
-0.194368
-0.194369
-0.194370
-0.194371
-0.194372
-0.194373
-0.194374
-0.194375

SCALARS temperature float 1 
LOOKUP_TABLE default 
0.000015
0.000125
0.000338
0.000639
0.001004
0.001397
0.001775
0.002095
0.002319
0.002421
0.002399
0.002269
0.002060
0.001808
0.001547
0.001305
0.001101
0.000943
0.000838
0.000785
0.000017
0.000138
0.000374
0.000709
0.001116
0.001556
0.001981
0.002340
0.002588
0.002698
0.002666
0.002511
0.002269
0.001981
0.001687
0.001417
0.001189
0.001016
0.000900
0.000842
0.000020
0.000166
0.000451
0.000858
0.001356
0.001898
0.002424
0.002869
0.003172
0.003296
0.003239
0.003027
0.002709
0.002342
0.001974
0.001641
0.001365
0.001158
0.001020
0.000952
0.000026
0.000212
0.000578
0.001105
0.001758
0.002479
0.003185
0.003781
0.004181
0.004327
0.004217
0.003895
0.003438
0.002927
0.002429
0.001991
0.001636
0.001373
0.001201
0.001117
0.000034
0.000279
0.000766
0.001476
0.002371
0.003377
0.004378
0.005227
0.005786
0.005960
0.005747
0.005229
0.004532
0.003784
0.003081
0.002481
0.002008
0.001664
0.001442
0.001335
0.000045
0.000371
0.001024
0.001995
0.003245
0.004683
0.006146
0.007403
0.008215
0.008421
0.008020
0.007165
0.006076
0.004957
0.003947
0.003114
0.002476
0.002023
0.001737
0.001600
0.000060
0.000487
0.001353
0.002667
0.004407
0.006466
0.008622
0.010511
0.011721
0.011960
0.011231
0.009821
0.008120
0.006455
0.005015
0.003871
0.003022
0.002435
0.002070
0.001897
0.000076
0.000618
0.001734
0.003465
0.005822
0.008710
0.011840
0.014658
0.016462
0.016727
0.015466
0.013209
0.010625
0.008216
0.006225
0.004702
0.003607
0.002867
0.002416
0.002203
0.000092
0.000751
0.002123
0.004297
0.007346
0.011215
0.015566
0.019606
0.022211
0.022492
0.020477
0.017073
0.013362
0.010061
0.007445
0.005515
0.004166
0.003275
0.002738
0.002487
0.000106
0.000862
0.002453
0.005016
0.008696
0.013511
0.019103
0.024448
0.027931
0.028219
0.025358
0.020713
0.015840
0.011671
0.008478
0.006190
0.004625
0.003606
0.002999
0.002717
0.000114
0.000928
0.002648
0.005446
0.009515
0.014934
0.021348
0.027588
0.031685
0.031981
0.028529
0.023032
0.017387
0.012660
0.009110
0.006605
0.004910
0.003815
0.003166
0.002865
0.000115
0.000934
0.002665
0.005474
0.009553
0.014976
0.021387
0.027625
0.031731
0.032039
0.028604
0.023123
0.017488
0.012761
0.009203
0.006685
0.004979
0.003875
0.003219
0.002915
0.000109
0.000882
0.002503
0.005105
0.008822
0.013661
0.019263
0.024620
0.028131
0.028455
0.025631
0.021018
0.016159
0.011979
0.008757
0.006432
0.004832
0.003785
0.003158
0.002866
0.000097
0.000786
0.002214
0.004462
0.007588
0.011526
0.015932
0.020024
0.022687
0.023018
0.021039
0.017653
0.013933
0.010593
0.007917
0.005922
0.004513
0.003572
0.003002
0.002733
0.000083
0.000670
0.001871
0.003719
0.006209
0.009230
0.012481
0.015406
0.017299
0.017624
0.016386
0.014113
0.011479
0.008989
0.006898
0.005276
0.004092
0.003282
0.002783
0.002545
0.000069
0.000557
0.001541
0.003020
0.004954
0.007218
0.009567
0.011624
0.012958
0.013263
0.012539
0.011076
0.009275
0.007478
0.005894
0.004613
0.003645
0.002966
0.002539
0.002333
0.000057
0.000461
0.001264
0.002449
0.003957
0.005671
0.007398
0.008881
0.009853
0.010134
0.009720
0.008773
0.007534
0.006232
0.005032
0.004022
0.003235
0.002668
0.002305
0.002129
0.000048
0.000388
0.001059
0.002032
0.003246
0.004597
0.005931
0.007062
0.007815
0.008074
0.007832
0.007187
0.006294
0.005313
0.004374
0.003557
0.002903
0.002422
0.002110
0.001956
0.000042
0.000341
0.000926
0.001766
0.002801
0.003937
0.005044
0.005979
0.006609
0.006851
0.006697
0.006214
0.005514
0.004720
0.003938
0.003242
0.002674
0.002249
0.001971
0.001833
0.000039
0.000317
0.000861
0.001638
0.002589
0.003625
0.004630
0.005477
0.006053
0.006286
0.006169
0.005755
0.005140
0.004431
0.003722
0.003083
0.002556
0.002160
0.001898
0.001768


SCALARS Species_1 float 1 
LOOKUP_TABLE default 
0.000603
0.001805
0.002998
0.004173
0.005320
0.006427
0.007480
0.008464
0.009363
0.010165
0.010860
0.011443
0.011914
0.012278
0.012547
0.012735
0.012858
0.012932
0.012973
0.012991
0.000604
0.001810
0.003005
0.004183
0.005333
0.006442
0.007497
0.008483
0.009384
0.010187
0.010884
0.011468
0.011941
0.012307
0.012577
0.012766
0.012890
0.012965
0.013007
0.013025
0.000607
0.001818
0.003019
0.004202
0.005356
0.006470
0.007529
0.008518
0.009423
0.010230
0.010929
0.011516
0.011990
0.012358
0.012630
0.012821
0.012946
0.013022
0.013064
0.013083
0.000610
0.001828
0.003035
0.004223
0.005383
0.006502
0.007566
0.008560
0.009468
0.010279
0.010981
0.011571
0.012048
0.012418
0.012692
0.012883
0.013010
0.013087
0.013130
0.013149
0.000613
0.001836
0.003048
0.004241
0.005405
0.006528
0.007596
0.008593
0.009505
0.010318
0.011023
0.011615
0.012094
0.012465
0.012740
0.012934
0.013061
0.013139
0.013182
0.013201
0.000614
0.001838
0.003052
0.004247
0.005412
0.006536
0.007605
0.008603
0.009515
0.010329
0.011034
0.011627
0.012106
0.012478
0.012754
0.012948
0.013076
0.013154
0.013198
0.013217
0.000612
0.001833
0.003043
0.004233
0.005395
0.006515
0.007579
0.008573
0.009482
0.010293
0.010996
0.011586
0.012064
0.012435
0.012710
0.012903
0.013032
0.013110
0.013154
0.013173
0.000607
0.001816
0.003015
0.004194
0.005345
0.006454
0.007508
0.008492
0.009392
0.010195
0.010891
0.011476
0.011949
0.012316
0.012589
0.012782
0.012909
0.012988
0.013031
0.013051
0.000597
0.001786
0.002965
0.004125
0.005256
0.006347
0.007383
0.008351
0.009235
0.010025
0.010709
0.011283
0.011749
0.012110
0.012379
0.012569
0.012694
0.012772
0.012816
0.012835
0.000582
0.001742
0.002892
0.004023
0.005127
0.006190
0.007201
0.008145
0.009007
0.009777
0.010444
0.011004
0.011458
0.011811
0.012074
0.012259
0.012382
0.012459
0.012501
0.012520
0.000563
0.001685
0.002797
0.003891
0.004958
0.005986
0.006963
0.007876
0.008710
0.009453
0.010098
0.010640
0.011079
0.011421
0.011676
0.011856
0.011976
0.012050
0.012092
0.012110
0.000540
0.001616
0.002682
0.003731
0.004754
0.005740
0.006677
0.007552
0.008351
0.009064
0.009683
0.010202
0.010624
0.010953
0.011197
0.011371
0.011487
0.011559
0.011599
0.011617
0.000513
0.001537
0.002552
0.003550
0.004524
0.005462
0.006354
0.007186
0.007947
0.008626
0.009214
0.009709
0.010111
0.010425
0.010659
0.010824
0.010935
0.011005
0.011044
0.011061
0.000486
0.001454
0.002413
0.003358
0.004279
0.005166
0.006010
0.006797
0.007517
0.008159
0.008716
0.009185
0.009566
0.009864
0.010086
0.010244
0.010349
0.010416
0.010453
0.010470
0.000457
0.001370
0.002274
0.003164
0.004031
0.004868
0.005663
0.006405
0.007084
0.007689
0.008215
0.008658
0.009018
0.009300
0.009510
0.009660
0.009760
0.009823
0.009859
0.009875
0.000431
0.001290
0.002141
0.002979
0.003797
0.004585
0.005334
0.006033
0.006673
0.007244
0.007740
0.008159
0.008499
0.008765
0.008964
0.009106
0.009202
0.009262
0.009296
0.009311
0.000407
0.001219
0.002024
0.002816
0.003589
0.004334
0.005042
0.005704
0.006309
0.006850
0.007320
0.007716
0.008039
0.008292
0.008481
0.008616
0.008707
0.008765
0.008797
0.008812
0.000388
0.001161
0.001928
0.002684
0.003420
0.004131
0.004806
0.005437
0.006014
0.006530
0.006979
0.007358
0.007667
0.007909
0.008090
0.008220
0.008307
0.008362
0.008394
0.008408
0.000374
0.001121
0.001861
0.002590
0.003302
0.003988
0.004640
0.005249
0.005807
0.006306
0.006740
0.007106
0.007405
0.007639
0.007815
0.007941
0.008026
0.008079
0.008110
0.008124
0.000367
0.001100
0.001827
0.002542
0.003241
0.003914
0.004554
0.005153
0.005700
0.006190
0.006617
0.006977
0.007270
0.007501
0.007674
0.007797
0.007881
0.007934
0.007964
0.007977


SCALARS Species_2 float 1 
LOOKUP_TABLE default 
0.000301
0.000892
0.001446
0.001942
0.002363
0.002697
0.002937
0.003081
0.003134
0.003104
0.003003
0.002849
0.002656
0.002442
0.002224
0.002017
0.001835
0.001688
0.001586
0.001534
0.000311
0.000921
0.001493
0.002005
0.002440
0.002785
0.003033
0.003182
0.003237
0.003206
0.003103
0.002944
0.002745
0.002524
0.002300
0.002087
0.001899
0.001748
0.001642
0.001588
0.000331
0.000978
0.001585
0.002129
0.002591
0.002957
0.003220
0.003378
0.003437
0.003404
0.003296
0.003127
0.002916
0.002682
0.002444
0.002218
0.002019
0.001859
0.001748
0.001690
0.000359