# vtk DataFile Version 2.0
generated by CFD-lab course output (written by Tobias Neckel) 
ASCII

DATASET STRUCTURED_GRID
DIMENSIONS  21 21 1 
POINTS 441 float

0.000000 0.000000 0
0.100000 0.000000 0
0.200000 0.000000 0
0.300000 0.000000 0
0.400000 0.000000 0
0.500000 0.000000 0
0.600000 0.000000 0
0.700000 0.000000 0
0.800000 0.000000 0
0.900000 0.000000 0
1.000000 0.000000 0
1.100000 0.000000 0
1.200000 0.000000 0
1.300000 0.000000 0
1.400000 0.000000 0
1.500000 0.000000 0
1.600000 0.000000 0
1.700000 0.000000 0
1.800000 0.000000 0
1.900000 0.000000 0
2.000000 0.000000 0
0.000000 0.100000 0
0.100000 0.100000 0
0.200000 0.100000 0
0.300000 0.100000 0
0.400000 0.100000 0
0.500000 0.100000 0
0.600000 0.100000 0
0.700000 0.100000 0
0.800000 0.100000 0
0.900000 0.100000 0
1.000000 0.100000 0
1.100000 0.100000 0
1.200000 0.100000 0
1.300000 0.100000 0
1.400000 0.100000 0
1.500000 0.100000 0
1.600000 0.100000 0
1.700000 0.100000 0
1.800000 0.100000 0
1.900000 0.100000 0
2.000000 0.100000 0
0.000000 0.200000 0
0.100000 0.200000 0
0.200000 0.200000 0
0.300000 0.200000 0
0.400000 0.200000 0
0.500000 0.200000 0
0.600000 0.200000 0
0.700000 0.200000 0
0.800000 0.200000 0
0.900000 0.200000 0
1.000000 0.200000 0
1.100000 0.200000 0
1.200000 0.200000 0
1.300000 0.200000 0
1.400000 0.200000 0
1.500000 0.200000 0
1.600000 0.200000 0
1.700000 0.200000 0
1.800000 0.200000 0
1.900000 0.200000 0
2.000000 0.200000 0
0.000000 0.300000 0
0.100000 0.300000 0
0.200000 0.300000 0
0.300000 0.300000 0
0.400000 0.300000 0
0.500000 0.300000 0
0.600000 0.300000 0
0.700000 0.300000 0
0.800000 0.300000 0
0.900000 0.300000 0
1.000000 0.300000 0
1.100000 0.300000 0
1.200000 0.300000 0
1.300000 0.300000 0
1.400000 0.300000 0
1.500000 0.300000 0
1.600000 0.300000 0
1.700000 0.300000 0
1.800000 0.300000 0
1.900000 0.300000 0
2.000000 0.300000 0
0.000000 0.400000 0
0.100000 0.400000 0
0.200000 0.400000 0
0.300000 0.400000 0
0.400000 0.400000 0
0.500000 0.400000 0
0.600000 0.400000 0
0.700000 0.400000 0
0.800000 0.400000 0
0.900000 0.400000 0
1.000000 0.400000 0
1.100000 0.400000 0
1.200000 0.400000 0
1.300000 0.400000 0
1.400000 0.400000 0
1.500000 0.400000 0
1.600000 0.400000 0
1.700000 0.400000 0
1.800000 0.400000 0
1.900000 0.400000 0
2.000000 0.400000 0
0.000000 0.500000 0
0.100000 0.500000 0
0.200000 0.500000 0
0.300000 0.500000 0
0.400000 0.500000 0
0.500000 0.500000 0
0.600000 0.500000 0
0.700000 0.500000 0
0.800000 0.500000 0
0.900000 0.500000 0
1.000000 0.500000 0
1.100000 0.500000 0
1.200000 0.500000 0
1.300000 0.500000 0
1.400000 0.500000 0
1.500000 0.500000 0
1.600000 0.500000 0
1.700000 0.500000 0
1.800000 0.500000 0
1.900000 0.500000 0
2.000000 0.500000 0
0.000000 0.600000 0
0.100000 0.600000 0
0.200000 0.600000 0
0.300000 0.600000 0
0.400000 0.600000 0
0.500000 0.600000 0
0.600000 0.600000 0
0.700000 0.600000 0
0.800000 0.600000 0
0.900000 0.600000 0
1.000000 0.600000 0
1.100000 0.600000 0
1.200000 0.600000 0
1.300000 0.600000 0
1.400000 0.600000 0
1.500000 0.600000 0
1.600000 0.600000 0
1.700000 0.600000 0
1.800000 0.600000 0
1.900000 0.600000 0
2.000000 0.600000 0
0.000000 0.700000 0
0.100000 0.700000 0
0.200000 0.700000 0
0.300000 0.700000 0
0.400000 0.700000 0
0.500000 0.700000 0
0.600000 0.700000 0
0.700000 0.700000 0
0.800000 0.700000 0
0.900000 0.700000 0
1.000000 0.700000 0
1.100000 0.700000 0
1.200000 0.700000 0
1.300000 0.700000 0
1.400000 0.700000 0
1.500000 0.700000 0
1.600000 0.700000 0
1.700000 0.700000 0
1.800000 0.700000 0
1.900000 0.700000 0
2.000000 0.700000 0
0.000000 0.800000 0
0.100000 0.800000 0
0.200000 0.800000 0
0.300000 0.800000 0
0.400000 0.800000 0
0.500000 0.800000 0
0.600000 0.800000 0
0.700000 0.800000 0
0.800000 0.800000 0
0.900000 0.800000 0
1.000000 0.800000 0
1.100000 0.800000 0
1.200000 0.800000 0
1.300000 0.800000 0
1.400000 0.800000 0
1.500000 0.800000 0
1.600000 0.800000 0
1.700000 0.800000 0
1.800000 0.800000 0
1.900000 0.800000 0
2.000000 0.800000 0
0.000000 0.900000 0
0.100000 0.900000 0
0.200000 0.900000 0
0.300000 0.900000 0
0.400000 0.900000 0
0.500000 0.900000 0
0.600000 0.900000 0
0.700000 0.900000 0
0.800000 0.900000 0
0.900000 0.900000 0
1.000000 0.900000 0
1.100000 0.900000 0
1.200000 0.900000 0
1.300000 0.900000 0
1.400000 0.900000 0
1.500000 0.900000 0
1.600000 0.900000 0
1.700000 0.900000 0
1.800000 0.900000 0
1.900000 0.900000 0
2.000000 0.900000 0
0.000000 1.000000 0
0.100000 1.000000 0
0.200000 1.000000 0
0.300000 1.000000 0
0.400000 1.000000 0
0.500000 1.000000 0
0.600000 1.000000 0
0.700000 1.000000 0
0.800000 1.000000 0
0.900000 1.000000 0
1.000000 1.000000 0
1.100000 1.000000 0
1.200000 1.000000 0
1.300000 1.000000 0
1.400000 1.000000 0
1.500000 1.000000 0
1.600000 1.000000 0
1.700000 1.000000 0
1.800000 1.000000 0
1.900000 1.000000 0
2.000000 1.000000 0
0.000000 1.100000 0
0.100000 1.100000 0
0.200000 1.100000 0
0.300000 1.100000 0
0.400000 1.100000 0
0.500000 1.100000 0
0.600000 1.100000 0
0.700000 1.100000 0
0.800000 1.100000 0
0.900000 1.100000 0
1.000000 1.100000 0
1.100000 1.100000 0
1.200000 1.100000 0
1.300000 1.100000 0
1.400000 1.100000 0
1.500000 1.100000 0
1.600000 1.100000 0
1.700000 1.100000 0
1.800000 1.100000 0
1.900000 1.100000 0
2.000000 1.100000 0
0.000000 1.200000 0
0.100000 1.200000 0
0.200000 1.200000 0
0.300000 1.200000 0
0.400000 1.200000 0
0.500000 1.200000 0
0.600000 1.200000 0
0.700000 1.200000 0
0.800000 1.200000 0
0.900000 1.200000 0
1.000000 1.200000 0
1.100000 1.200000 0
1.200000 1.200000 0
1.300000 1.200000 0
1.400000 1.200000 0
1.500000 1.200000 0
1.600000 1.200000 0
1.700000 1.200000 0
1.800000 1.200000 0
1.900000 1.200000 0
2.000000 1.200000 0
0.000000 1.300000 0
0.100000 1.300000 0
0.200000 1.300000 0
0.300000 1.300000 0
0.400000 1.300000 0
0.500000 1.300000 0
0.600000 1.300000 0
0.700000 1.300000 0
0.800000 1.300000 0
0.900000 1.300000 0
1.000000 1.300000 0
1.100000 1.300000 0
1.200000 1.300000 0
1.300000 1.300000 0
1.400000 1.300000 0
1.500000 1.300000 0
1.600000 1.300000 0
1.700000 1.300000 0
1.800000 1.300000 0
1.900000 1.300000 0
2.000000 1.300000 0
0.000000 1.400000 0
0.100000 1.400000 0
0.200000 1.400000 0
0.300000 1.400000 0
0.400000 1.400000 0
0.500000 1.400000 0
0.600000 1.400000 0
0.700000 1.400000 0
0.800000 1.400000 0
0.900000 1.400000 0
1.000000 1.400000 0
1.100000 1.400000 0
1.200000 1.400000 0
1.300000 1.400000 0
1.400000 1.400000 0
1.500000 1.400000 0
1.600000 1.400000 0
1.700000 1.400000 0
1.800000 1.400000 0
1.900000 1.400000 0
2.000000 1.400000 0
0.000000 1.500000 0
0.100000 1.500000 0
0.200000 1.500000 0
0.300000 1.500000 0
0.400000 1.500000 0
0.500000 1.500000 0
0.600000 1.500000 0
0.700000 1.500000 0
0.800000 1.500000 0
0.900000 1.500000 0
1.000000 1.500000 0
1.100000 1.500000 0
1.200000 1.500000 0
1.300000 1.500000 0
1.400000 1.500000 0
1.500000 1.500000 0
1.600000 1.500000 0
1.700000 1.500000 0
1.800000 1.500000 0
1.900000 1.500000 0
2.000000 1.500000 0
0.000000 1.600000 0
0.100000 1.600000 0
0.200000 1.600000 0
0.300000 1.600000 0
0.400000 1.600000 0
0.500000 1.600000 0
0.600000 1.600000 0
0.700000 1.600000 0
0.800000 1.600000 0
0.900000 1.600000 0
1.000000 1.600000 0
1.100000 1.600000 0
1.200000 1.600000 0
1.300000 1.600000 0
1.400000 1.600000 0
1.500000 1.600000 0
1.600000 1.600000 0
1.700000 1.600000 0
1.800000 1.600000 0
1.900000 1.600000 0
2.000000 1.600000 0
0.000000 1.700000 0
0.100000 1.700000 0
0.200000 1.700000 0
0.300000 1.700000 0
0.400000 1.700000 0
0.500000 1.700000 0
0.600000 1.700000 0
0.700000 1.700000 0
0.800000 1.700000 0
0.900000 1.700000 0
1.000000 1.700000 0
1.100000 1.700000 0
1.200000 1.700000 0
1.300000 1.700000 0
1.400000 1.700000 0
1.500000 1.700000 0
1.600000 1.700000 0
1.700000 1.700000 0
1.800000 1.700000 0
1.900000 1.700000 0
2.000000 1.700000 0
0.000000 1.800000 0
0.100000 1.800000 0
0.200000 1.800000 0
0.300000 1.800000 0
0.400000 1.800000 0
0.500000 1.800000 0
0.600000 1.800000 0
0.700000 1.800000 0
0.800000 1.800000 0
0.900000 1.800000 0
1.000000 1.800000 0
1.100000 1.800000 0
1.200000 1.800000 0
1.300000 1.800000 0
1.400000 1.800000 0
1.500000 1.800000 0
1.600000 1.800000 0
1.700000 1.800000 0
1.800000 1.800000 0
1.900000 1.800000 0
2.000000 1.800000 0
0.000000 1.900000 0
0.100000 1.900000 0
0.200000 1.900000 0
0.300000 1.900000 0
0.400000 1.900000 0
0.500000 1.900000 0
0.600000 1.900000 0
0.700000 1.900000 0
0.800000 1.900000 0
0.900000 1.900000 0
1.000000 1.900000 0
1.100000 1.900000 0
1.200000 1.900000 0
1.300000 1.900000 0
1.400000 1.900000 0
1.500000 1.900000 0
1.600000 1.900000 0
1.700000 1.900000 0
1.800000 1.900000 0
1.900000 1.900000 0
2.000000 1.900000 0
0.000000 2.000000 0
0.100000 2.000000 0
0.200000 2.000000 0
0.300000 2.000000 0
0.400000 2.000000 0
0.500000 2.000000 0
0.600000 2.000000 0
0.700000 2.000000 0
0.800000 2.000000 0
0.900000 2.000000 0
1.000000 2.000000 0
1.100000 2.000000 0
1.200000 2.000000 0
1.300000 2.000000 0
1.400000 2.000000 0
1.500000 2.000000 0
1.600000 2.000000 0
1.700000 2.000000 0
1.800000 2.000000 0
1.900000 2.000000 0
2.000000 2.000000 0
POINT_DATA 441 

VECTORS velocity float
0.000000 0.000000 0
0.000013 0.000000 0
0.000010 0.000000 0
0.000000 0.000000 0
-0.000007 0.000000 0
-0.000009 0.000000 0
-0.000005 0.000000 0
-0.000000 0.000000 0
0.000004 0.000000 0
0.000005 0.000000 0
0.000004 0.000000 0
0.000001 0.000000 0
-0.000000 0.000000 0
-0.000001 0.000000 0
-0.000001 0.000000 0
-0.000001 0.000000 0
-0.000000 0.000000 0
-0.000000 0.000000 0
-0.000000 0.000000 0
-0.000000 0.000000 0
-0.000000 0.000000 0
0.000000 0.000015 0
0.000032 -0.000012 0
0.000055 -0.000024 0
0.000071 -0.000031 0
0.000081 -0.000025 0
0.000084 -0.000008 0
0.000077 0.000014 0
0.000058 0.000032 0
0.000028 0.000043 0
-0.000010 0.000045 0
-0.000051 0.000040 0
-0.000091 0.000033 0
-0.000125 0.000024 0
-0.000151 0.000017 0
-0.000169 0.000011 0
-0.000179 0.000006 0
-0.000184 0.000003 0
-0.000186 0.000000 0
-0.000185 -0.000001 0
-0.000184 -0.000000 0
-0.000184 -0.000000 0
0.000000 -0.000000 0
0.000023 -0.000055 0
0.000051 -0.000059 0
0.000077 -0.000042 0
0.000096 -0.000015 0
0.000101 0.000015 0
0.000090 0.000042 0
0.000064 0.000061 0
0.000026 0.000073 0
-0.000019 0.000077 0
-0.000065 0.000075 0
-0.000108 0.000068 0
-0.000144 0.000056 0
-0.000171 0.000043 0
-0.000190 0.000029 0
-0.000200 0.000017 0
-0.000205 0.000008 0
-0.000207 0.000002 0
-0.000206 -0.000001 0
-0.000205 -0.000001 0
-0.000205 -0.000001 0
0.000000 -0.000007 0
0.000020 -0.000085 0
0.000057 -0.000075 0
0.000089 -0.000048 0
0.000107 -0.000017 0
0.000110 0.000016 0
0.000096 0.000049 0
0.000068 0.000080 0
0.000027 0.000106 0
-0.000020 0.000121 0
-0.000069 0.000123 0
-0.000114 0.000112 0
-0.000151 0.000092 0
-0.000178 0.000068 0
-0.000195 0.000044 0
-0.000204 0.000024 0
-0.000207 0.000009 0
-0.000206 0.000001 0
-0.000204 -0.000003 0
-0.000202 -0.000002 0
-0.000202 -0.000001 0
0.000000 0.000000 0
0.000028 -0.000108 0
0.000067 -0.000100 0
0.000098 -0.000074 0
0.000116 -0.000037 0
0.000121 0.000008 0
0.000109 0.000061 0
0.000081 0.000114 0
0.000037 0.000155 0
-0.000017 0.000178 0
-0.000073 0.000178 0
-0.000124 0.000158 0
-0.000163 0.000125 0
-0.000188 0.000088 0
-0.000202 0.000054 0
-0.000207 0.000027 0
-0.000206 0.000008 0
-0.000202 -0.000002 0
-0.000198 -0.000005 0
-0.000195 -0.000003 0
-0.000195 -0.000001 0
0.000000 0.000004 0
0.000034 -0.000140 0
0.000071 -0.000140 0
0.000104 -0.000108 0
0.000129 -0.000057 0
0.000139 0.000010 0
0.000131 0.000086 0
0.000101 0.000158 0
0.000051 0.000213 0
-0.000014 0.000240 0
-0.000080 0.000235 0
-0.000137 0.000203 0
-0.000177 0.000155 0
-0.000200 0.000105 0
-0.000209 0.000060 0
-0.000208 0.000026 0
-0.000202 0.000004 0
-0.000195 -0.000007 0
-0.000188 -0.000009 0
-0.000185 -0.000005 0
-0.000184 -0.000002 0
0.000000 0.000000 0
0.000033 -0.000182 0
0.000074 -0.000181 0
0.000112 -0.000138 0
0.000143 -0.000072 0
0.000159 0.000013 0
0.000154 0.000109 0
0.000121 0.000202 0
0.000063 0.000273 0
-0.000011 0.000307 0
-0.000087 0.000297 0
-0.000149 0.000251 0
-0.000189 0.000186 0
-0.000207 0.000119 0
-0.000210 0.000062 0
-0.000203 0.000021 0
-0.000193 -0.000004 0
-0.000182 -0.000015 0
-0.000173 -0.000015 0
-0.000169 -0.000007 0
-0.000168 -0.000002 0
0.000000 -0.000002 0
0.000032 -0.000222 0
0.000075 -0.000219 0
0.000116 -0.000169 0
0.000150 -0.000093 0
0.000170 0.000007 0
0.000167 0.000125 0
0.000135 0.000244 0
0.000073 0.000340 0
-0.000008 0.000385 0
-0.000090 0.000370 0
-0.000155 0.000304 0
-0.000192 0.000215 0
-0.000206 0.000128 0
-0.000202 0.000057 0
-0.000190 0.000009 0
-0.000175 -0.000017 0
-0.000161 -0.000027 0
-0.000151 -0.000023 0
-0.000146 -0.000010 0
-0.000145 -0.000002 0
0.000000 -0.000001 0
0.000031 -0.000258 0
0.000070 -0.000258 0
0.000108 -0.000206 0
0.000141 -0.000123 0
0.000162 -0.000007 0
0.000164 0.000138 0
0.000137 0.000290 0
0.000077 0.000414 0
-0.000004 0.000471 0
-0.000086 0.000446 0
-0.000148 0.000356 0
-0.000180 0.000239 0
-0.000187 0.000129 0
-0.000178 0.000046 0
-0.000162 -0.000007 0
-0.000146 -0.000033 0
-0.000131 -0.000039 0
-0.000121 -0.000031 0
-0.000115 -0.000013 0
-0.000115 -0.000002 0
0.000000 0.000001 0
0.000025 -0.000290 0
0.000054 -0.000295 0
0.000084 -0.000242 0
0.000112 -0.000151 0
0.000132 -0.000020 0
0.000137 0.000149 0
0.000117 0.000332 0
0.000069 0.000483 0
0.000000 0.000551 0
-0.000069 0.000515 0
-0.000119 0.000399 0
-0.000142 0.000255 0
-0.000144 0.000125 0
-0.000133 0.000032 0
-0.000118 -0.000024 0
-0.000103 -0.000049 0
-0.000090 -0.000052 0
-0.000081 -0.000038 0
-0.000077 -0.000015 0
-0.000077 -0.000003 0
0.000000 -0.000000 0
0.000014 -0.000313 0
0.000030 -0.000321 0
0.000047 -0.000266 0
0.000064 -0.000171 0
0.000077 -0.000030 0
0.000082 0.000155 0
0.000072 0.000360 0
0.000044 0.000532 0
0.000004 0.000609 0
-0.000036 0.000564 0
-0.000065 0.000428 0
-0.000077 0.000263 0
-0.000076 0.000120 0
-0.000068 0.000020 0
-0.000058 -0.000037 0
-0.000048 -0.000061 0
-0.000040 -0.000061 0
-0.000035 -0.000044 0
-0.000032 -0.000017 0
-0.000032 -0.000003 0
0.000000 -0.000001 0
0.000001 -0.000322 0
0.000001 -0.000330 0
0.000002 -0.000274 0
0.000003 -0.000178 0
0.000005 -0.000035 0
0.000006 0.000156 0
0.000007 0.000369 0
0.000007 0.000549 0
0.000007 0.000630 0
0.000008 0.000582 0
0.000008 0.000439 0
0.000009 0.000266 0
0.000010 0.000117 0
0.000011 0.000014 0
0.000013 -0.000043 0
0.000014 -0.000066 0
0.000015 -0.000065 0
0.000016 -0.000047 0
0.000017 -0.000018 0
0.000016 -0.000003 0
0.000000 -0.000001 0
-0.000012 -0.000315 0
-0.000028 -0.000322 0
-0.000044 -0.000267 0
-0.000058 -0.000172 0
-0.000069 -0.000032 0
-0.000071 0.000152 0
-0.000059 0.000357 0
-0.000030 0.000530 0
0.000011 0.000608 0
0.000052 0.000564 0
0.000081 0.000427 0
0.000095 0.000262 0
0.000096 0.000118 0
0.000091 0.000017 0
0.000084 -0.000040 0
0.000077 -0.000063 0
0.000071 -0.000063 0
0.000068 -0.000045 0
0.000066 -0.000018 0
0.000066 -0.000003 0
0.000000 -0.000000 0
-0.000023 -0.000293 0
-0.000053 -0.000299 0
-0.000082 -0.000245 0
-0.000109 -0.000154 0
-0.000127 -0.000023 0
-0.000129 0.000145 0
-0.000107 0.000328 0
-0.000057 0.000480 0
0.000013 0.000549 0
0.000084 0.000512 0
0.000136 0.000396 0
0.000162 0.000250 0
0.000167 0.000121 0
0.000159 0.000027 0
0.000146 -0.000029 0
0.000134 -0.000054 0
0.000123 -0.000056 0
0.000116 -0.000041 0
0.000113 -0.000016 0
0.000112 -0.000002 0
0.000000 -0.000000 0
-0.000031 -0.000262 0
-0.000071 -0.000264 0
-0.000108 -0.000212 0
-0.000140 -0.000128 0
-0.000161 -0.000011 0
-0.000161 0.000134 0
-0.000132 0.000286 0
-0.000070 0.000410 0
0.000015 0.000467 0
0.000101 0.000440 0
0.000166 0.000349 0
0.000202 0.000231 0
0.000213 0.000121 0
0.000207 0.000038 0
0.000194 -0.000015 0
0.000180 -0.000040 0
0.000168 -0.000045 0
0.000159 -0.000035 0
0.000154 -0.000014 0
0.000154 -0.000002 0
0.000000 -0.000000 0
-0.000036 -0.000223 0
-0.000081 -0.000223 0
-0.000122 -0.000175 0
-0.000155 -0.000101 0
-0.000174 -0.000001 0
-0.000170 0.000117 0
-0.000136 0.000237 0
-0.000071 0.000333 0
0.000016 0.000378 0
0.000104 0.000361 0
0.000174 0.000294 0
0.000217 0.000204 0
0.000236 0.000115 0
0.000236 0.000045 0
0.000227 -0.000002 0
0.000215 -0.000027 0
0.000203 -0.000034 0
0.000194 -0.000028 0
0.000189 -0.000012 0
0.000189 -0.000002 0
0.000000 -0.000000 0
-0.000039 -0.000181 0
-0.000086 -0.000178 0
-0.000128 -0.000138 0
-0.000159 -0.000076 0
-0.000174 0.000004 0
-0.000166 0.000096 0
-0.000130 0.000187 0
-0.000067 0.000258 0
0.000015 0.000292 0
0.000100 0.000282 0
0.000170 0.000235 0
0.000218 0.000169 0
0.000243 0.000102 0
0.000251 0.000046 0
0.000248 0.000006 0
0.000240 -0.000016 0
0.000230 -0.000025 0
0.000222 -0.000021 0
0.000218 -0.000009 0
0.000217 -0.000002 0
0.000000 -0.000000 0
-0.000041 -0.000137 0
-0.000089 -0.000134 0
-0.000131 -0.000102 0
-0.000160 -0.000054 0
-0.000172 0.000006 0
-0.000161 0.000073 0
-0.000124 0.000137 0
-0.000063 0.000188 0
0.000014 0.000212 0
0.000093 0.000206 0
0.000162 0.000176 0
0.000213 0.000130 0
0.000244 0.000082 0
0.000259 0.000040 0
0.000262 0.000010 0
0.000258 -0.000009 0
0.000251 -0.000017 0
0.000244 -0.000015 0
0.000240 -0.000007 0
0.000240 -0.000001 0
0.000000 -0.000000 0
-0.000043 -0.000092 0
-0.000093 -0.000089 0
-0.000135 -0.000067 0
-0.000164 -0.000035 0
-0.000173 0.000004 0
-0.000160 0.000048 0
-0.000122 0.000089 0
-0.000063 0.000121 0
0.000010 0.000137 0
0.000086 0.000134 0
0.000154 0.000115 0
0.000208 0.000087 0
0.000244 0.000056 0
0.000264 0.000029 0
0.000271 0.000008 0
0.000269 -0.000005 0
0.000264 -0.000011 0
0.000258 -0.000010 0
0.000254 -0.000005 0
0.000254 -0.000001 0
0.000000 -0.000000 0
-0.000043 -0.000044 0
-0.000091 -0.000042 0
-0.000132 -0.000032 0
-0.000159 -0.000017 0
-0.000167 0.000002 0
-0.000154 0.000022 0
-0.000119 0.000041 0
-0.000065 0.000056 0
0.000002 0.000063 0
0.000071 0.000062 0
0.000135 0.000053 0
0.000187 0.000041 0
0.000222 0.000026 0
0.000243 0.000014 0
0.000251 0.000004 0
0.000251 -0.000003 0
0.000246 -0.000005 0
0.000240 -0.000005 0
0.000236 -0.000002 0
0.000235 -0.000000 0
0.000000 0.000000 0
0.000000 0.000000 0
0.000000 0.000000 0
-0.000000 0.000000 0
-0.000000 0.000000 0
-0.000000 0.000000 0
-0.000000 0.000000 0
-0.000000 0.000000 0
-0.000000 0.000000 0
-0.000000 0.000000 0
0.000000 0.000000 0
0.000000 0.000000 0
0.000000 0.000000 0
0.000000 0.000000 0
0.000000 0.000000 0
0.000000 0.000000 0
0.000000 0.000000 0
0.000000 0.000000 0
0.000000 0.000000 0
0.000000 0.000000 0
0.000000 0.000000 0

CELL_DATA 400 
SCALARS pressure float 1 
LOOKUP_TABLE default 
0.242655
0.242602
0.242563
0.242563
0.242592
0.242627
0.242648
0.242649
0.242635
0.242616
0.242602
0.242597
0.242598
0.242603
0.242609
0.242613
0.242614
0.242615
0.242615
0.242616
0.219594
0.219592
0.219612
0.219632
0.219640
0.219633
0.219618
0.219603
0.219596
0.219597
0.219602
0.219608
0.219613
0.219615
0.219615
0.219615
0.219614
0.219614
0.219615
0.219616
0.196596
0.196631
0.196646
0.196635
0.196611
0.196591
0.196583
0.196589
0.196602
0.196613
0.196620
0.196621
0.196618
0.196615
0.196613
0.196612
0.196612
0.196614
0.196615
0.196616
0.173625
0.173637
0.173624
0.173603
0.173588
0.173587
0.173598
0.173611
0.173621
0.173624
0.173621
0.173617
0.173613
0.173610
0.173610
0.173612
0.173613
0.173615
0.173616
0.173616
0.150624
0.150615
0.150606
0.150604
0.150607
0.150613
0.150618
0.150619
0.150617
0.150614
0.150611
0.150610
0.150610
0.150612
0.150613
0.150614
0.150615
0.150616
0.150617
0.150617
0.127606
0.127609
0.127618
0.127624
0.127625
0.127620
0.127613
0.127608
0.127606
0.127607
0.127610
0.127613
0.127615
0.127615
0.127616
0.127616
0.127616
0.127616
0.127617
0.127618
0.104606
0.104619
0.104628
0.104627
0.104619
0.104610
0.104604
0.104604
0.104607
0.104612
0.104615
0.104617
0.104617
0.104617
0.104616
0.104616
0.104616
0.104617
0.104618
0.104618
0.081616
0.081623
0.081623
0.081618
0.081613
0.081610
0.081609
0.081612
0.081614
0.081616
0.081617
0.081617
0.081616
0.081616
0.081616
0.081617
0.081617
0.081618
0.081619
0.081619
0.058619
0.058617
0.058617
0.058618
0.058619
0.058619
0.058618
0.058617
0.058616
0.058615
0.058615
0.058616
0.058617
0.058617
0.058618
0.058619
0.058619
0.058619
0.058620
0.058620
0.035616
0.035616
0.035620
0.035624
0.035625
0.035623
0.035620
0.035617
0.035615
0.035615
0.035616
0.035618
0.035619
0.035620
0.035620
0.035620
0.035620
0.035620
0.035621
0.035621
0.012618
0.012620
0.012624
0.012626
0.012625
0.012623
0.012620
0.012618
0.012618
0.012619
0.012620
0.012621
0.012622
0.012622
0.012622
0.012622
0.012621
0.012622
0.012622
0.012622
-0.010377
-0.010377
-0.010376
-0.010375
-0.010376
-0.010376
-0.010377
-0.010377
-0.010377
-0.010376
-0.010376
-0.010376
-0.010376
-0.010376
-0.010377
-0.010377
-0.010377
-0.010377
-0.010377
-0.010377
-0.033375
-0.033377
-0.033377
-0.033375
-0.033373
-0.033372
-0.033372
-0.033372
-0.033373
-0.033374
-0.033374
-0.033374
-0.033374
-0.033375
-0.033375
-0.033375
-0.033375
-0.033376
-0.033376
-0.033376
-0.056374
-0.056376
-0.056375
-0.056373
-0.056370
-0.056369
-0.056370
-0.056370
-0.056371
-0.056372
-0.056372
-0.056372
-0.056372
-0.056372
-0.056373
-0.056373
-0.056374
-0.056375
-0.056375
-0.056376
-0.079373
-0.079373
-0.079372
-0.079371
-0.079370
-0.079369
-0.079369
-0.079369
-0.079369
-0.079369
-0.079370
-0.079370
-0.079370
-0.079371
-0.079371
-0.079372
-0.079373
-0.079373
-0.079374
-0.079375
-0.102370
-0.102371
-0.102371
-0.102371
-0.102370
-0.102368
-0.102368
-0.102367
-0.102367
-0.102367
-0.102368
-0.102368
-0.102369
-0.102369
-0.102370
-0.102371
-0.102372
-0.102372
-0.102373
-0.102374
-0.125369
-0.125370
-0.125371
-0.125370
-0.125369
-0.125367
-0.125366
-0.125365
-0.125366
-0.125366
-0.125366
-0.125367
-0.125368
-0.125368
-0.125369
-0.125370
-0.125370
-0.125371
-0.125372
-0.125373
-0.148369
-0.148370
-0.148370
-0.148369
-0.148368
-0.148366
-0.148365
-0.148365
-0.148365
-0.148365
-0.148365
-0.148366
-0.148366
-0.148367
-0.148368
-0.148369
-0.148369
-0.148370
-0.148371
-0.148372
-0.171368
-0.171369
-0.171369
-0.171368
-0.171367
-0.171366
-0.171365
-0.171364
-0.171364
-0.171364
-0.171364
-0.171364
-0.171365
-0.171366
-0.171367
-0.171367
-0.171368
-0.171369
-0.171370
-0.171371
-0.194368
-0.194368
-0.194368
-0.194368
-0.194367
-0.194365
-0.194364
-0.194363
-0.194362
-0.194362
-0.194362
-0.194363
-0.194364
-0.194365
-0.194365
-0.194366
-0.194368
-0.194369
-0.194370
-0.194371

SCALARS temperature float 1 
LOOKUP_TABLE default 
0.000031
0.000240
0.000644
0.001210
0.001894
0.002635
0.003365
0.004014
0.004522
0.004849
0.004983
0.004939
0.004755
0.004477
0.004154
0.003830
0.003539
0.003304
0.003140
0.003057
0.000033
0.000256
0.000687
0.001292
0.002024
0.002819
0.003602
0.004297
0.004836
0.005175
0.005301
0.005235
0.005018
0.004705
0.004348
0.003994
0.003678
0.003425
0.003251
0.003163
0.000038
0.000290
0.000777
0.001464
0.002300
0.003210
0.004108
0.004900
0.005505
0.005867
0.005974
0.005854
0.005564
0.005170
0.004737
0.004318
0.003951
0.003661
0.003463
0.003363
0.000045
0.000343
0.000922
0.001746
0.002753
0.003860
0.004955
0.005917
0.006633
0.007029
0.007092
0.006868
0.006440
0.005903
0.005338
0.004809
0.004359
0.004009
0.003773
0.003656
0.000056
0.000421
0.001134
0.002159
0.003429
0.004842
0.006252
0.007486
0.008380
0.008818
0.008790
0.008378
0.007715
0.006942
0.006170
0.005474
0.004900
0.004464
0.004174
0.004031
0.000070
0.000524
0.001420
0.002726
0.004373
0.006239
0.008131
0.009790
0.010955
0.011442
0.011240
0.010504
0.009459
0.008319
0.007238
0.006306
0.005561
0.005010
0.004651
0.004475
0.000088
0.000652
0.001778
0.003450
0.005609
0.008113
0.010711
0.013012
0.014588
0.015125
0.014615
0.013347
0.011709
0.010031
0.008521
0.007275
0.006311
0.005619
0.005176
0.004961
0.000107
0.000796
0.002188
0.004297
0.007096
0.010443
0.014017
0.017241
0.019413
0.019995
0.018984
0.016906
0.014413
0.012006
0.009947
0.008317
0.007100
0.006248
0.005712
0.005455
0.000127
0.000940
0.002604
0.005177
0.008689
0.013030
0.017817
0.022241
0.025203
0.025817
0.024097
0.020926
0.017341
0.014056
0.011374
0.009329
0.007850
0.006839
0.006212
0.005914
0.000144
0.001061
0.002956
0.005937
0.010104
0.015415
0.021446
0.027154
0.030975
0.031613
0.029095
0.024731
0.020009
0.015858
0.012592
0.010179
0.008475
0.007330
0.006628
0.006296
0.000153
0.001133
0.003169
0.006403
0.010986
0.016941
0.023831
0.030461
0.034907
0.035567
0.032475
0.027256
0.021746
0.017020
0.013379
0.010737
0.008894
0.007666
0.006918
0.006564
0.000155
0.001145
0.003202
0.006465
0.011087
0.017090
0.024045
0.030758
0.035282
0.035962
0.032842
0.027577
0.022025
0.017264
0.013592
0.010925
0.009062
0.007819
0.007059
0.006699
0.000149
0.001098
0.003055
0.006125
0.010405
0.015855
0.022062
0.027986
0.032003
0.032707
0.030125
0.025648
0.020817
0.016572
0.013223
0.010737
0.008974
0.007782
0.007048
0.006698
0.000137
0.001003
0.002770
0.005490
0.009186
0.013744
0.018785
0.023492
0.026702
0.027416
0.025644
0.022348
0.018628
0.015211
0.012404
0.010247
0.008672
0.007586
0.006907
0.006579
0.000120
0.000885
0.002422
0.004739
0.007791
0.011425
0.015308
0.018844
0.021275
0.021981
0.020954
0.018773
0.016140
0.013577
0.011360
0.009580
0.008234
0.007280
0.006673
0.006376
0.000104
0.000767
0.002082
0.004022
0.006506
0.009368
0.012329
0.014969
0.016812
0.017494
0.016998
0.015646
0.013862
0.012003
0.010302
0.008871
0.007746
0.006926
0.006394
0.006130
0.000090
0.000665
0.001794
0.003429
0.005474
0.007771
0.010088
0.012125
0.013579
0.014230
0.014059
0.013241
0.012034
0.010683
0.009374
0.008222
0.007284
0.006580
0.006114
0.005880
0.000079
0.000588
0.001578
0.002994
0.004734
0.006653
0.008558
0.010223
0.011439
0.012061
0.012069
0.011565
0.010714
0.009694
0.008654
0.007701
0.006900
0.006287
0.005873
0.005664
0.000072
0.000537
0.001438
0.002714
0.004268
0.005962
0.007627
0.009081
0.010164
0.010764
0.010862
0.010525
0.009874
0.009047
0.008169
0.007341
0.006630
0.006076
0.005698
0.005505
0.000068
0.000511
0.001368
0.002577
0.004042
0.005632
0.007189
0.008549
0.009571
0.010161
0.010295
0.010030
0.009466
0.008725
0.007923
0.007155
0.006488
0.005964
0.005605
0.005421


SCALARS Species_1 float 1 
LOOKUP_TABLE default 
0.000530
0.001586
0.002628
0.003646
0.004632
0.005578
0.006477
0.007322
0.008106
0.008825
0.009476
0.010056
0.010564
0.011002
0.011370
0.011671
0.011908
0.012082
0.012197
0.012254
0.000529
0.001583
0.002622
0.003637
0.004621
0.005566
0.006462
0.007305
0.008088
0.008806
0.009455
0.010034
0.010541
0.010978
0.011345
0.011646
0.011882
0.012057
0.012172
0.012229
0.000527
0.001576
0.002611
0.003622
0.004602
0.005543
0.006436
0.007275
0.008055
0.008770
0.009417
0.009993
0.010499
0.010934
0.011301
0.011600
0.011836
0.012010
0.012124
0.012181
0.000524
0.001566
0.002595
0.003600
0.004574
0.005509
0.006397
0.007231
0.008007
0.008718
0.009361
0.009934
0.010437
0.010869
0.011234
0.011532
0.011766
0.011939
0.012053
0.012109
0.000519
0.001554
0.002573
0.003571
0.004537
0.005464
0.006344
0.007172
0.007941
0.008647
0.009285
0.009853
0.010352
0.010781
0.011143
0.011438
0.011671
0.011842
0.011955
0.012011
0.000514
0.001537
0.002546
0.003533
0.004488
0.005406
0.006277
0.007097
0.007858
0.008556
0.009187
0.009750
0.010243
0.010668
0.011026
0.011318
0.011548
0.011718
0.011830
0.011886
0.000507
0.001517
0.002513
0.003486
0.004429
0.005335
0.006195
0.007003
0.007755
0.008444
0.009067
0.009622
0.010109
0.010528
0.010881
0.011170
0.011397
0.011565
0.011675
0.011730
0.000499
0.001493
0.002473
0.003431
0.004360
0.005251
0.006097
0.006893
0.007632
0.008310
0.008923
0.009470
0.009949
0.010361
0.010709
0.010993
0.011216
0.011382
0.011491
0.011545
0.000490
0.001465
0.002427
0.003368
0.004279
0.005154
0.005984
0.006765
0.007491
0.008156
0.008757
0.009293
0.009763
0.010168
0.010509
0.010788
0.011008
0.011170
0.011277
0.011331
0.000480
0.001435
0.002376
0.003297
0.004189
0.005045
0.005858
0.006622
0.007332
0.007983
0.008571
0.009095
0.009555
0.009951
0.010285
0.010558
0.010774
0.010933
0.011038
0.011090
0.000469
0.001401
0.002321
0.003220
0.004091
0.004927
0.005721
0.006466
0.007159
0.007794
0.008368
0.008879
0.009328
0.009715
0.010041
0.010308
0.010518
0.010674
0.010777
0.010828
0.000457
0.001366
0.002263
0.003139
0.003988
0.004802
0.005575
0.006301
0.006976
0.007593
0.008152
0.008651
0.009088
0.009465
0.009783
0.010043
0.010249
0.010401
0.010501
0.010551
0.000445
0.001330
0.002202
0.003056
0.003882
0.004674
0.005426
0.006132
0.006787
0.007388
0.007932
0.008416
0.008842
0.009209
0.009518
0.009772
0.009972
0.010121
0.010218
0.010267
0.000433
0.001294
0.002143
0.002973
0.003776
0.004546
0.005277
0.005964
0.006601
0.007185
0.007713
0.008184
0.008598
0.008955
0.009257
0.009504
0.009699
0.009843
0.009939
0.009986
0.000421
0.001259
0.002086
0.002893
0.003675
0.004424
0.005136
0.005803
0.006423
0.006991
0.007505
0.007963
0.008366
0.008714
0.009008
0.009249
0.009439
0.009580
0.009673
0.009719
0.000411
0.001228
0.002033
0.002821
0.003583
0.004313
0.005006
0.005656
0.006260
0.006814
0.007315
0.007762
0.008156
0.008495
0.008781
0.009017
0.009202
0.009340
0.009431
0.009476
0.000401
0.001200
0.001988
0.002758
0.003503
0.004217
0.004894
0.005530
0.006121
0.006662
0.007152
0.007590
0.007974
0.008307
0.008587
0.008817
0.008999
0.009134
0.009223
0.009267
0.000394
0.001179
0.001952
0.002708
0.003440
0.004141
0.004806
0.005430
0.006010
0.006542
0.007023
0.007453
0.007831
0.008157
0.008433
0.008660
0.008838
0.008971
0.009058
0.009102
0.000389
0.001164
0.001928
0.002674
0.003396
0.004088
0.004745
0.005361
0.005933
0.006458
0.006934
0.007358
0.007732
0.008054
0.008327
0.008550
0.008727
0.008858
0.008944
0.008987
0.000387
0.001156
0.001915
0.002656
0.003374
0.004061
0.004713
0.005325
0.005894
0.006416
0.006888
0.007310
0.007681
0.008001
0.008272
0.008494
0.008670
0.008800
0.008886
0.008929


SCALARS Species_2 float 1 
LOOKUP_TABLE default 
0.000248
0.000736
0.001204
0.001639
0.002031
0.002372
0.002656
0.002881
0.003046
0.003154
0.003210
0.003221
0.003197
0.003146
0.003079
0.003005
0.002934
0.002874
0.002830
0.002807
0.000251
0.000745
0.001219
0.001660
0.002057
0.002403
0.002691
0.002919
0.003086
0.003196
0.003253
0.003265
0.003241
0.003190
0.003122
0.003048
0.002976
0.002915
0.002871
0.002848
0.000257
0.000765
0.001251
0.001703
0.002110
0.002465
0.002760
0.002994
0.003166
0.003279
0.003338
0.003351
0.003326
0.003274
0.003205
0.003130
0.003057
0.002994
0.002949
0.002925
0.000267
0.000793