# vtk DataFile Version 2.0
generated by CFD-lab course output (written by Tobias Neckel) 
ASCII

DATASET STRUCTURED_GRID
DIMENSIONS  21 21 1 
POINTS 441 float

0.000000 0.000000 0
0.100000 0.000000 0
0.200000 0.000000 0
0.300000 0.000000 0
0.400000 0.000000 0
0.500000 0.000000 0
0.600000 0.000000 0
0.700000 0.000000 0
0.800000 0.000000 0
0.900000 0.000000 0
1.000000 0.000000 0
1.100000 0.000000 0
1.200000 0.000000 0
1.300000 0.000000 0
1.400000 0.000000 0
1.500000 0.000000 0
1.600000 0.000000 0
1.700000 0.000000 0
1.800000 0.000000 0
1.900000 0.000000 0
2.000000 0.000000 0
0.000000 0.100000 0
0.100000 0.100000 0
0.200000 0.100000 0
0.300000 0.100000 0
0.400000 0.100000 0
0.500000 0.100000 0
0.600000 0.100000 0
0.700000 0.100000 0
0.800000 0.100000 0
0.900000 0.100000 0
1.000000 0.100000 0
1.100000 0.100000 0
1.200000 0.100000 0
1.300000 0.100000 0
1.400000 0.100000 0
1.500000 0.100000 0
1.600000 0.100000 0
1.700000 0.100000 0
1.800000 0.100000 0
1.900000 0.100000 0
2.000000 0.100000 0
0.000000 0.200000 0
0.100000 0.200000 0
0.200000 0.200000 0
0.300000 0.200000 0
0.400000 0.200000 0
0.500000 0.200000 0
0.600000 0.200000 0
0.700000 0.200000 0
0.800000 0.200000 0
0.900000 0.200000 0
1.000000 0.200000 0
1.100000 0.200000 0
1.200000 0.200000 0
1.300000 0.200000 0
1.400000 0.200000 0
1.500000 0.200000 0
1.600000 0.200000 0
1.700000 0.200000 0
1.800000 0.200000 0
1.900000 0.200000 0
2.000000 0.200000 0
0.000000 0.300000 0
0.100000 0.300000 0
0.200000 0.300000 0
0.300000 0.300000 0
0.400000 0.300000 0
0.500000 0.300000 0
0.600000 0.300000 0
0.700000 0.300000 0
0.800000 0.300000 0
0.900000 0.300000 0
1.000000 0.300000 0
1.100000 0.300000 0
1.200000 0.300000 0
1.300000 0.300000 0
1.400000 0.300000 0
1.500000 0.300000 0
1.600000 0.300000 0
1.700000 0.300000 0
1.800000 0.300000 0
1.900000 0.300000 0
2.000000 0.300000 0
0.000000 0.400000 0
0.100000 0.400000 0
0.200000 0.400000 0
0.300000 0.400000 0
0.400000 0.400000 0
0.500000 0.400000 0
0.600000 0.400000 0
0.700000 0.400000 0
0.800000 0.400000 0
0.900000 0.400000 0
1.000000 0.400000 0
1.100000 0.400000 0
1.200000 0.400000 0
1.300000 0.400000 0
1.400000 0.400000 0
1.500000 0.400000 0
1.600000 0.400000 0
1.700000 0.400000 0
1.800000 0.400000 0
1.900000 0.400000 0
2.000000 0.400000 0
0.000000 0.500000 0
0.100000 0.500000 0
0.200000 0.500000 0
0.300000 0.500000 0
0.400000 0.500000 0
0.500000 0.500000 0
0.600000 0.500000 0
0.700000 0.500000 0
0.800000 0.500000 0
0.900000 0.500000 0
1.000000 0.500000 0
1.100000 0.500000 0
1.200000 0.500000 0
1.300000 0.500000 0
1.400000 0.500000 0
1.500000 0.500000 0
1.600000 0.500000 0
1.700000 0.500000 0
1.800000 0.500000 0
1.900000 0.500000 0
2.000000 0.500000 0
0.000000 0.600000 0
0.100000 0.600000 0
0.200000 0.600000 0
0.300000 0.600000 0
0.400000 0.600000 0
0.500000 0.600000 0
0.600000 0.600000 0
0.700000 0.600000 0
0.800000 0.600000 0
0.900000 0.600000 0
1.000000 0.600000 0
1.100000 0.600000 0
1.200000 0.600000 0
1.300000 0.600000 0
1.400000 0.600000 0
1.500000 0.600000 0
1.600000 0.600000 0
1.700000 0.600000 0
1.800000 0.600000 0
1.900000 0.600000 0
2.000000 0.600000 0
0.000000 0.700000 0
0.100000 0.700000 0
0.200000 0.700000 0
0.300000 0.700000 0
0.400000 0.700000 0
0.500000 0.700000 0
0.600000 0.700000 0
0.700000 0.700000 0
0.800000 0.700000 0
0.900000 0.700000 0
1.000000 0.700000 0
1.100000 0.700000 0
1.200000 0.700000 0
1.300000 0.700000 0
1.400000 0.700000 0
1.500000 0.700000 0
1.600000 0.700000 0
1.700000 0.700000 0
1.800000 0.700000 0
1.900000 0.700000 0
2.000000 0.700000 0
0.000000 0.800000 0
0.100000 0.800000 0
0.200000 0.800000 0
0.300000 0.800000 0
0.400000 0.800000 0
0.500000 0.800000 0
0.600000 0.800000 0
0.700000 0.800000 0
0.800000 0.800000 0
0.900000 0.800000 0
1.000000 0.800000 0
1.100000 0.800000 0
1.200000 0.800000 0
1.300000 0.800000 0
1.400000 0.800000 0
1.500000 0.800000 0
1.600000 0.800000 0
1.700000 0.800000 0
1.800000 0.800000 0
1.900000 0.800000 0
2.000000 0.800000 0
0.000000 0.900000 0
0.100000 0.900000 0
0.200000 0.900000 0
0.300000 0.900000 0
0.400000 0.900000 0
0.500000 0.900000 0
0.600000 0.900000 0
0.700000 0.900000 0
0.800000 0.900000 0
0.900000 0.900000 0
1.000000 0.900000 0
1.100000 0.900000 0
1.200000 0.900000 0
1.300000 0.900000 0
1.400000 0.900000 0
1.500000 0.900000 0
1.600000 0.900000 0
1.700000 0.900000 0
1.800000 0.900000 0
1.900000 0.900000 0
2.000000 0.900000 0
0.000000 1.000000 0
0.100000 1.000000 0
0.200000 1.000000 0
0.300000 1.000000 0
0.400000 1.000000 0
0.500000 1.000000 0
0.600000 1.000000 0
0.700000 1.000000 0
0.800000 1.000000 0
0.900000 1.000000 0
1.000000 1.000000 0
1.100000 1.000000 0
1.200000 1.000000 0
1.300000 1.000000 0
1.400000 1.000000 0
1.500000 1.000000 0
1.600000 1.000000 0
1.700000 1.000000 0
1.800000 1.000000 0
1.900000 1.000000 0
2.000000 1.000000 0
0.000000 1.100000 0
0.100000 1.100000 0
0.200000 1.100000 0
0.300000 1.100000 0
0.400000 1.100000 0
0.500000 1.100000 0
0.600000 1.100000 0
0.700000 1.100000 0
0.800000 1.100000 0
0.900000 1.100000 0
1.000000 1.100000 0
1.100000 1.100000 0
1.200000 1.100000 0
1.300000 1.100000 0
1.400000 1.100000 0
1.500000 1.100000 0
1.600000 1.100000 0
1.700000 1.100000 0
1.800000 1.100000 0
1.900000 1.100000 0
2.000000 1.100000 0
0.000000 1.200000 0
0.100000 1.200000 0
0.200000 1.200000 0
0.300000 1.200000 0
0.400000 1.200000 0
0.500000 1.200000 0
0.600000 1.200000 0
0.700000 1.200000 0
0.800000 1.200000 0
0.900000 1.200000 0
1.000000 1.200000 0
1.100000 1.200000 0
1.200000 1.200000 0
1.300000 1.200000 0
1.400000 1.200000 0
1.500000 1.200000 0
1.600000 1.200000 0
1.700000 1.200000 0
1.800000 1.200000 0
1.900000 1.200000 0
2.000000 1.200000 0
0.000000 1.300000 0
0.100000 1.300000 0
0.200000 1.300000 0
0.300000 1.300000 0
0.400000 1.300000 0
0.500000 1.300000 0
0.600000 1.300000 0
0.700000 1.300000 0
0.800000 1.300000 0
0.900000 1.300000 0
1.000000 1.300000 0
1.100000 1.300000 0
1.200000 1.300000 0
1.300000 1.300000 0
1.400000 1.300000 0
1.500000 1.300000 0
1.600000 1.300000 0
1.700000 1.300000 0
1.800000 1.300000 0
1.900000 1.300000 0
2.000000 1.300000 0
0.000000 1.400000 0
0.100000 1.400000 0
0.200000 1.400000 0
0.300000 1.400000 0
0.400000 1.400000 0
0.500000 1.400000 0
0.600000 1.400000 0
0.700000 1.400000 0
0.800000 1.400000 0
0.900000 1.400000 0
1.000000 1.400000 0
1.100000 1.400000 0
1.200000 1.400000 0
1.300000 1.400000 0
1.400000 1.400000 0
1.500000 1.400000 0
1.600000 1.400000 0
1.700000 1.400000 0
1.800000 1.400000 0
1.900000 1.400000 0
2.000000 1.400000 0
0.000000 1.500000 0
0.100000 1.500000 0
0.200000 1.500000 0
0.300000 1.500000 0
0.400000 1.500000 0
0.500000 1.500000 0
0.600000 1.500000 0
0.700000 1.500000 0
0.800000 1.500000 0
0.900000 1.500000 0
1.000000 1.500000 0
1.100000 1.500000 0
1.200000 1.500000 0
1.300000 1.500000 0
1.400000 1.500000 0
1.500000 1.500000 0
1.600000 1.500000 0
1.700000 1.500000 0
1.800000 1.500000 0
1.900000 1.500000 0
2.000000 1.500000 0
0.000000 1.600000 0
0.100000 1.600000 0
0.200000 1.600000 0
0.300000 1.600000 0
0.400000 1.600000 0
0.500000 1.600000 0
0.600000 1.600000 0
0.700000 1.600000 0
0.800000 1.600000 0
0.900000 1.600000 0
1.000000 1.600000 0
1.100000 1.600000 0
1.200000 1.600000 0
1.300000 1.600000 0
1.400000 1.600000 0
1.500000 1.600000 0
1.600000 1.600000 0
1.700000 1.600000 0
1.800000 1.600000 0
1.900000 1.600000 0
2.000000 1.600000 0
0.000000 1.700000 0
0.100000 1.700000 0
0.200000 1.700000 0
0.300000 1.700000 0
0.400000 1.700000 0
0.500000 1.700000 0
0.600000 1.700000 0
0.700000 1.700000 0
0.800000 1.700000 0
0.900000 1.700000 0
1.000000 1.700000 0
1.100000 1.700000 0
1.200000 1.700000 0
1.300000 1.700000 0
1.400000 1.700000 0
1.500000 1.700000 0
1.600000 1.700000 0
1.700000 1.700000 0
1.800000 1.700000 0
1.900000 1.700000 0
2.000000 1.700000 0
0.000000 1.800000 0
0.100000 1.800000 0
0.200000 1.800000 0
0.300000 1.800000 0
0.400000 1.800000 0
0.500000 1.800000 0
0.600000 1.800000 0
0.700000 1.800000 0
0.800000 1.800000 0
0.900000 1.800000 0
1.000000 1.800000 0
1.100000 1.800000 0
1.200000 1.800000 0
1.300000 1.800000 0
1.400000 1.800000 0
1.500000 1.800000 0
1.600000 1.800000 0
1.700000 1.800000 0
1.800000 1.800000 0
1.900000 1.800000 0
2.000000 1.800000 0
0.000000 1.900000 0
0.100000 1.900000 0
0.200000 1.900000 0
0.300000 1.900000 0
0.400000 1.900000 0
0.500000 1.900000 0
0.600000 1.900000 0
0.700000 1.900000 0
0.800000 1.900000 0
0.900000 1.900000 0
1.000000 1.900000 0
1.100000 1.900000 0
1.200000 1.900000 0
1.300000 1.900000 0
1.400000 1.900000 0
1.500000 1.900000 0
1.600000 1.900000 0
1.700000 1.900000 0
1.800000 1.900000 0
1.900000 1.900000 0
2.000000 1.900000 0
0.000000 2.000000 0
0.100000 2.000000 0
0.200000 2.000000 0
0.300000 2.000000 0
0.400000 2.000000 0
0.500000 2.000000 0
0.600000 2.000000 0
0.700000 2.000000 0
0.800000 2.000000 0
0.900000 2.000000 0
1.000000 2.000000 0
1.100000 2.000000 0
1.200000 2.000000 0
1.300000 2.000000 0
1.400000 2.000000 0
1.500000 2.000000 0
1.600000 2.000000 0
1.700000 2.000000 0
1.800000 2.000000 0
1.900000 2.000000 0
2.000000 2.000000 0
POINT_DATA 441 

VECTORS velocity float
0.000000 0.000000 0
0.000006 0.000000 0
0.000010 0.000000 0
0.000006 0.000000 0
-0.000001 0.000000 0
-0.000006 0.000000 0
-0.000007 0.000000 0
-0.000004 0.000000 0
-0.000000 0.000000 0
0.000002 0.000000 0
0.000003 0.000000 0
0.000003 0.000000 0
0.000001 0.000000 0
-0.000000 0.000000 0
-0.000001 0.000000 0
-0.000001 0.000000 0
-0.000001 0.000000 0
-0.000000 0.000000 0
-0.000000 0.000000 0
-0.000000 0.000000 0
-0.000000 0.000000 0
0.000000 0.000011 0
0.000037 -0.000023 0
0.000071 -0.000031 0
0.000097 -0.000032 0
0.000114 -0.000023 0
0.000119 -0.000006 0
0.000110 0.000015 0
0.000086 0.000034 0
0.000049 0.000046 0
0.000002 0.000050 0
-0.000049 0.000048 0
-0.000099 0.000041 0
-0.000142 0.000032 0
-0.000175 0.000023 0
-0.000198 0.000016 0
-0.000213 0.000009 0
-0.000220 0.000004 0
-0.000222 0.000001 0
-0.000222 -0.000001 0
-0.000221 -0.000001 0
-0.000221 -0.000000 0
0.000000 0.000006 0
0.000032 -0.000070 0
0.000071 -0.000074 0
0.000105 -0.000054 0
0.000129 -0.000024 0
0.000136 0.000011 0
0.000124 0.000043 0
0.000093 0.000070 0
0.000047 0.000088 0
-0.000008 0.000097 0
-0.000067 0.000097 0
-0.000121 0.000088 0
-0.000168 0.000073 0
-0.000204 0.000056 0
-0.000228 0.000038 0
-0.000243 0.000022 0
-0.000250 0.000010 0
-0.000252 0.000003 0
-0.000252 -0.000001 0
-0.000251 -0.000001 0
-0.000251 -0.000001 0
0.000000 -0.000005 0
0.000030 -0.000110 0
0.000076 -0.000103 0
0.000114 -0.000072 0
0.000138 -0.000032 0
0.000144 0.000013 0
0.000130 0.000058 0
0.000097 0.000100 0
0.000048 0.000134 0
-0.000012 0.000153 0
-0.000074 0.000156 0
-0.000131 0.000142 0
-0.000178 0.000118 0
-0.000213 0.000087 0
-0.000236 0.000058 0
-0.000248 0.000033 0
-0.000252 0.000014 0
-0.000252 0.000003 0
-0.000250 -0.000002 0
-0.000249 -0.000002 0
-0.000248 -0.000001 0
0.000000 -0.000003 0
0.000036 -0.000144 0
0.000084 -0.000139 0
0.000124 -0.000104 0
0.000149 -0.000054 0
0.000157 0.000007 0
0.000145 0.000075 0
0.000110 0.000141 0
0.000056 0.000193 0
-0.000010 0.000221 0
-0.000080 0.000222 0
-0.000143 0.000198 0
-0.000192 0.000159 0
-0.000225 0.000114 0
-0.000244 0.000072 0
-0.000251 0.000038 0
-0.000251 0.000014 0
-0.000247 0.000000 0
-0.000243 -0.000005 0
-0.000240 -0.000003 0
-0.000240 -0.000001 0
0.000000 0.000003 0
0.000041 -0.000186 0
0.000090 -0.000187 0
0.000132 -0.000144 0
0.000164 -0.000077 0
0.000177 0.000008 0
0.000168 0.000102 0
0.000131 0.000192 0
0.000070 0.000261 0
-0.000008 0.000296 0
-0.000089 0.000292 0
-0.000158 0.000255 0
-0.000209 0.000198 0
-0.000238 0.000137 0
-0.000251 0.000082 0
-0.000252 0.000039 0
-0.000246 0.000010 0
-0.000238 -0.000005 0
-0.000231 -0.000009 0
-0.000227 -0.000005 0
-0.000226 -0.000001 0
0.000000 0.000002 0
0.000041 -0.000235 0
0.000093 -0.000237 0
0.000141 -0.000183 0
0.000179 -0.000099 0
0.000198 0.000008 0
0.000191 0.000128 0
0.000152 0.000244 0
0.000083 0.000334 0
-0.000006 0.000379 0
-0.000097 0.000369 0
-0.000173 0.000316 0
-0.000223 0.000238 0
-0.000247 0.000156 0
-0.000253 0.000085 0
-0.000246 0.000033 0
-0.000235 0.000001 0
-0.000222 -0.000015 0
-0.000212 -0.000016 0
-0.000207 -0.000007 0
-0.000207 -0.000002 0
0.000000 -0.000002 0
0.000040 -0.000284 0
0.000093 -0.000287 0
0.000144 -0.000224 0
0.000185 -0.000127 0
0.000209 0.000000 0
0.000205 0.000149 0
0.000167 0.000297 0
0.000093 0.000415 0
-0.000004 0.000473 0
-0.000102 0.000457 0
-0.000180 0.000380 0
-0.000227 0.000274 0
-0.000245 0.000168 0
-0.000243 0.000081 0
-0.000230 0.000021 0
-0.000213 -0.000014 0
-0.000197 -0.000028 0
-0.000185 -0.000024 0
-0.000179 -0.000011 0
-0.000179 -0.000002 0
0.000000 -0.000002 0
0.000038 -0.000329 0
0.000086 -0.000336 0
0.000133 -0.000269 0
0.000173 -0.000162 0
0.000199 -0.000014 0
0.000200 0.000165 0
0.000167 0.000352 0
0.000096 0.000503 0
-0.000000 0.000574 0
-0.000098 0.000547 0
-0.000172 0.000443 0
-0.000213 0.000304 0
-0.000223 0.000172 0
-0.000214 0.000070 0
-0.000197 0.000003 0
-0.000177 -0.000032 0
-0.000160 -0.000042 0
-0.000148 -0.000034 0
-0.000142 -0.000014 0
-0.000142 -0.000002 0
0.000000 0.000000 0
0.000030 -0.000368 0
0.000067 -0.000381 0
0.000104 -0.000312 0
0.000137 -0.000195 0
0.000161 -0.000030 0
0.000166 0.000179 0
0.000142 0.000402 0
0.000085 0.000584 0
0.000003 0.000668 0
-0.000079 0.000630 0
-0.000139 0.000495 0
-0.000169 0.000325 0
-0.000172 0.000169 0
-0.000161 0.000055 0
-0.000143 -0.000016 0
-0.000126 -0.000050 0
-0.000111 -0.000057 0
-0.000100 -0.000043 0
-0.000095 -0.000017 0
-0.000095 -0.000002 0
0.000000 0.000000 0
0.000017 -0.000397 0
0.000037 -0.000413 0
0.000059 -0.000341 0
0.000079 -0.000219 0
0.000095 -0.000042 0
0.000099 0.000187 0
0.000087 0.000435 0
0.000054 0.000643 0
0.000006 0.000737 0
-0.000042 0.000689 0
-0.000077 0.000532 0
-0.000092 0.000337 0
-0.000091 0.000164 0
-0.000083 0.000041 0
-0.000071 -0.000032 0
-0.000060 -0.000065 0
-0.000050 -0.000068 0
-0.000044 -0.000050 0
-0.000040 -0.000019 0
-0.000040 -0.000002 0
0.000000 -0.000001 0
0.000001 -0.000408 0
0.000002 -0.000424 0
0.000004 -0.000352 0
0.000005 -0.000228 0
0.000007 -0.000048 0
0.000009 0.000187 0
0.000010 0.000446 0
0.000010 0.000664 0
0.000009 0.000763 0
0.000008 0.000711 0
0.000007 0.000545 0
0.000008 0.000340 0
0.000010 0.000161 0
0.000012 0.000034 0
0.000014 -0.000039 0
0.000016 -0.000071 0
0.000017 -0.000073 0
0.000019 -0.000053 0
0.000019 -0.000021 0
0.000019 -0.000002 0
0.000000 -0.000001 0
-0.000014 -0.000399 0
-0.000033 -0.000414 0
-0.000053 -0.000343 0
-0.000070 -0.000221 0
-0.000082 -0.000045 0
-0.000084 0.000183 0
-0.000069 0.000433 0
-0.000036 0.000643 0
0.000011 0.000739 0
0.000058 0.000690 0
0.000092 0.000531 0
0.000110 0.000335 0
0.000112 0.000161 0
0.000107 0.000037 0
0.000100 -0.000036 0
0.000092 -0.000068 0
0.000086 -0.000071 0
0.000082 -0.000052 0
0.000080 -0.000020 0
0.000080 -0.000002 0
0.000000 -0.000000 0
-0.000028 -0.000374 0
-0.000064 -0.000386 0
-0.000100 -0.000316 0
-0.000132 -0.000199 0
-0.000154 -0.000034 0
-0.000156 0.000174 0
-0.000130 0.000398 0
-0.000070 0.000584 0
0.000012 0.000670 0
0.000095 0.000630 0
0.000157 0.000493 0
0.000190 0.000320 0
0.000197 0.000163 0
0.000189 0.000047 0
0.000176 -0.000024 0
0.000161 -0.000057 0
0.000150 -0.000062 0
0.000142 -0.000047 0
0.000137 -0.000018 0
0.000137 -0.000002 0
0.000000 -0.000000 0
-0.000038 -0.000335 0
-0.000087 -0.000343 0
-0.000134 -0.000276 0
-0.000173 -0.000168 0
-0.000198 -0.000020 0
-0.000198 0.000160 0
-0.000162 0.000348 0
-0.000089 0.000501 0
0.000012 0.000573 0
0.000114 0.000545 0
0.000193 0.000437 0
0.000238 0.000295 0
0.000253 0.000161 0
0.000248 0.000059 0
0.000235 -0.000008 0
0.000219 -0.000042 0
0.000205 -0.000051 0
0.000194 -0.000040 0
0.000189 -0.000016 0
0.000189 -0.000002 0
0.000000 -0.000000 0
-0.000045 -0.000287 0
-0.000101 -0.000291 0
-0.000153 -0.000230 0
-0.000194 -0.000135 0
-0.000217 -0.000009 0
-0.000213 0.000139 0
-0.000172 0.000289 0
-0.000093 0.000409 0
0.000011 0.000467 0
0.000118 0.000449 0
0.000203 0.000369 0
0.000258 0.000260 0
0.000282 0.000153 0
0.000285 0.000066 0
0.000276 0.000006 0
0.000262 -0.000027 0
0.000249 -0.000038 0
0.000238 -0.000031 0
0.000233 -0.000013 0
0.000233 -0.000002 0
0.000000 -0.000000 0
-0.000049 -0.000234 0
-0.000109 -0.000235 0
-0.000162 -0.000183 0
-0.000203 -0.000103 0
-0.000222 -0.000002 0
-0.000213 0.000114 0
-0.000169 0.000228 0
-0.000092 0.000318 0
0.000008 0.000362 0
0.000111 0.000352 0
0.000198 0.000297 0
0.000259 0.000217 0
0.000292 0.000135 0
0.000304 0.000065 0
0.000302 0.000015 0
0.000293 -0.000015 0
0.000283 -0.000027 0
0.000274 -0.000024 0
0.000268 -0.000010 0
0.000268 -0.000001 0
0.000000 -0.000000 0
-0.000052 -0.000178 0
-0.000115 -0.000177 0
-0.000169 -0.000136 0
-0.000208 -0.000075 0
-0.000224 0.000001 0
-0.000211 0.000086 0
-0.000166 0.000168 0
-0.000091 0.000232 0
0.000003 0.000264 0
0.000102 0.000258 0
0.000188 0.000222 0
0.000253 0.000167 0
0.000294 0.000108 0
0.000314 0.000056 0
0.000320 0.000017 0
0.000316 -0.000008 0
0.000308 -0.000018 0
0.000301 -0.000017 0
0.000296 -0.000008 0
0.000296 -0.000001 0
0.000000 0.000000 0
-0.000056 -0.000119 0
-0.000122 -0.000118 0
-0.000178 -0.000090 0
-0.000216 -0.000049 0
-0.000230 0.000001 0
-0.000215 0.000057 0
-0.000169 0.000109 0
-0.000096 0.000149 0
-0.000005 0.000169 0
0.000091 0.000167 0
0.000178 0.000145 0
0.000246 0.000111 0
0.000293 0.000073 0
0.000320 0.000039 0
0.000330 0.000013 0
0.000330 -0.000004 0
0.000325 -0.000012 0
0.000318 -0.000012 0
0.000313 -0.000005 0
0.000313 -0.000001 0
0.000000 -0.000000 0
-0.000055 -0.000056 0
-0.000119 -0.000056 0
-0.000173 -0.000042 0
-0.000209 -0.000023 0
-0.000222 0.000000 0
-0.000208 0.000025 0
-0.000166 0.000049 0
-0.000099 0.000068 0
-0.000017 0.000077 0
0.000070 0.000076 0
0.000151 0.000066 0
0.000216 0.000051 0
0.000261 0.000034 0
0.000289 0.000018 0
0.000301 0.000006 0
0.000302 -0.000002 0
0.000297 -0.000006 0
0.000290 -0.000006 0
0.000285 -0.000003 0
0.000285 -0.000000 0
0.000000 0.000000 0
-0.000000 0.000000 0
0.000000 0.000000 0
-0.000000 0.000000 0
-0.000000 0.000000 0
-0.000000 0.000000 0
-0.000000 0.000000 0
-0.000000 0.000000 0
-0.000000 0.000000 0
-0.000000 0.000000 0
-0.000000 0.000000 0
0.000000 0.000000 0
0.000000 0.000000 0
0.000000 0.000000 0
0.000000 0.000000 0
0.000000 0.000000 0
0.000000 0.000000 0
0.000000 0.000000 0
0.000000 0.000000 0
0.000000 0.000000 0
0.000000 0.000000 0

CELL_DATA 400 
SCALARS pressure float 1 
LOOKUP_TABLE default 
0.242655
0.242631
0.242589
0.242564
0.242568
0.242592
0.242619
0.242635
0.242637
0.242627
0.242614
0.242604
0.242600
0.242601
0.242604
0.242608
0.242610
0.242611
0.242612
0.242613
0.219610
0.219591
0.219595
0.219612
0.219628
0.219633
0.219627
0.219616
0.219605
0.219599
0.219599
0.219602
0.219607
0.219610
0.219612
0.219612
0.219612
0.219612
0.219613
0.219613
0.196586
0.196610
0.196635
0.196642
0.196630
0.196611
0.196595
0.196589
0.196592
0.196601
0.196610
0.196615
0.196616
0.196615
0.196613
0.196612
0.196611
0.196612
0.196613
0.196613
0.173607
0.173631
0.173634
0.173620
0.173602
0.173591
0.173591
0.173598
0.173608
0.173616
0.173618
0.173617
0.173614
0.173612
0.173610
0.173611
0.173611
0.173613
0.173613
0.173614
0.150621
0.150619
0.150611
0.150605
0.150603
0.150606
0.150611
0.150614
0.150616
0.150615
0.150613
0.150611
0.150610
0.150610
0.150611
0.150612
0.150613
0.150614
0.150615
0.150615
0.127611
0.127606
0.127610
0.127617
0.127621
0.127621
0.127617
0.127612
0.127608
0.127607
0.127608
0.127610
0.127612
0.127613
0.127614
0.127615
0.127615
0.127615
0.127616
0.127616
0.104605
0.104611
0.104621
0.104626
0.104624
0.104618
0.104610
0.104606
0.104605
0.104607
0.104611
0.104614
0.104615
0.104616
0.104615
0.104615
0.104615
0.104616
0.104616
0.104617
0.081613
0.081619
0.081622
0.081621
0.081617
0.081612
0.081610
0.081609
0.081611
0.081613
0.081615
0.081616
0.081616
0.081616
0.081616
0.081616
0.081616
0.081617
0.081617
0.081618
0.058620
0.058618
0.058616
0.058616
0.058617
0.058617
0.058617
0.058617
0.058616
0.058615
0.058615
0.058615
0.058616
0.058616
0.058617
0.058618
0.058618
0.058618
0.058619
0.058619
0.035619
0.035615
0.035616
0.035620
0.035623
0.035623
0.035622
0.035619
0.035617
0.035616
0.035616
0.035617
0.035618
0.035619
0.035619
0.035620
0.035620
0.035620
0.035620
0.035620
0.012619
0.012618
0.012621
0.012624
0.012625
0.012624
0.012622
0.012620
0.012619
0.012619
0.012619
0.012620
0.012621
0.012621
0.012621
0.012621
0.012621
0.012621
0.012621
0.012621
-0.010377
-0.010377
-0.010377
-0.010376
-0.010376
-0.010376
-0.010376
-0.010377
-0.010377
-0.010377
-0.010377
-0.010377
-0.010377
-0.010377
-0.010377
-0.010377
-0.010377
-0.010377
-0.010377
-0.010377
-0.033374
-0.033376
-0.033377
-0.033376
-0.033375
-0.033373
-0.033372
-0.033372
-0.033372
-0.033373
-0.033374
-0.033374
-0.033374
-0.033375
-0.033375
-0.033375
-0.033375
-0.033376
-0.033376
-0.033376
-0.056372
-0.056375
-0.056375
-0.056374
-0.056372
-0.056370
-0.056369
-0.056369
-0.056370
-0.056371
-0.056371
-0.056372
-0.056372
-0.056372
-0.056373
-0.056373
-0.056374
-0.056374
-0.056375
-0.056375
-0.079372
-0.079373
-0.079373
-0.079372
-0.079370
-0.079369
-0.079368
-0.079368
-0.079368
-0.079369
-0.079369
-0.079369
-0.079370
-0.079370
-0.079371
-0.079371
-0.079372
-0.079373
-0.079373
-0.079374
-0.102370
-0.102370
-0.102371
-0.102370
-0.102370
-0.102368
-0.102367
-0.102367
-0.102366
-0.102366
-0.102367
-0.102367
-0.102368
-0.102369
-0.102369
-0.102370
-0.102371
-0.102371
-0.102372
-0.102373
-0.125369
-0.125369
-0.125370
-0.125370
-0.125369
-0.125367
-0.125366
-0.125365
-0.125364
-0.125365
-0.125365
-0.125366
-0.125366
-0.125367
-0.125368
-0.125368
-0.125369
-0.125370
-0.125371
-0.125371
-0.148368
-0.148368
-0.148369
-0.148368
-0.148367
-0.148366
-0.148365
-0.148364
-0.148363
-0.148363
-0.148364
-0.148364
-0.148365
-0.148365
-0.148366
-0.148367
-0.148368
-0.148369
-0.148370
-0.148370
-0.171368
-0.171368
-0.171368
-0.171367
-0.171366
-0.171365
-0.171364
-0.171363
-0.171362
-0.171362
-0.171362
-0.171363
-0.171363
-0.171364
-0.171365
-0.171366
-0.171367
-0.171367
-0.171368
-0.171369
-0.194368
-0.194367
-0.194367
-0.194367
-0.194366
-0.194364
-0.194363
-0.194362
-0.194361
-0.194360
-0.194360
-0.194361
-0.194362
-0.194362
-0.194363
-0.194364
-0.194365
-0.194366
-0.194367
-0.194368

SCALARS temperature float 1 
LOOKUP_TABLE default 
0.000038
0.000285
0.000760
0.001429
0.002239
0.003123
0.004004
0.004805
0.005458
0.005915
0.006158
0.006203
0.006086
0.005857
0.005566
0.005261
0.004979
0.004748
0.004585
0.004503
0.000040
0.000301
0.000804
0.001512
0.002371
0.003310
0.004246
0.005094
0.005779
0.006250
0.006487
0.006510
0.006361
0.006096
0.005772
0.005437
0.005132
0.004883
0.004710
0.004623
0.000045
0.000336
0.000897
0.001689
0.002652
0.003708
0.004761
0.005709
0.006463
0.006958
0.007177
0.007149
0.006928
0.006584
0.006185
0.005787
0.005431
0.005146
0.004950
0.004851
0.000053
0.000391
0.001046
0.001976
0.003114
0.004368
0.005620
0.006740
0.007608
0.008141
0.008318
0.008189
0.007834
0.007350
0.006822
0.006315
0.005876
0.005533
0.005299
0.005182
0.000065
0.000471
0.001263
0.002397
0.003799
0.005361
0.006929
0.008323
0.009371
0.009950
0.010041
0.009728
0.009145
0.008429
0.007696
0.007026
0.006464
0.006035
0.005748
0.005606
0.000080
0.000577
0.001554
0.002972
0.004753
0.006767
0.008816
0.010633
0.011954
0.012587
0.012510
0.011882
0.010924
0.009850
0.008814
0.007909
0.007179
0.006635
0.006279
0.006105
0.000099
0.000708
0.001918
0.003705
0.005998
0.008648
0.011396
0.013849
0.015580
0.016267
0.015892
0.014746
0.013209
0.011608
0.010150
0.008935
0.007988
0.007303
0.006863
0.006650
0.000121
0.000856
0.002334
0.004561
0.007496
0.010982
0.014694
0.018055
0.020374
0.021110
0.020250
0.018318
0.015948
0.013631
0.011631
0.010036
0.008836
0.007992
0.007458
0.007203
0.000142
0.001003
0.002755
0.005450
0.009101
0.013577
0.018487
0.023024
0.026115
0.026889
0.025343
0.022352
0.018914
0.015732
0.013115
0.011107
0.009645
0.008641
0.008017
0.007719
0.000159
0.001125
0.003112
0.006219
0.010531
0.015985
0.022130
0.027932
0.031865
0.032667
0.030350
0.026193
0.021635
0.017593
0.014392
0.012013
0.010325
0.009186
0.008486
0.008154
0.000170
0.001199
0.003330
0.006695
0.011436
0.017554
0.024578
0.031313
0.035874
0.036702
0.033820
0.028806
0.023448
0.018820
0.015236
0.012623
0.010794
0.009571
0.008823
0.008468
0.000172
0.001214
0.003370
0.006774
0.011568
0.017761
0.024891
0.031762
0.036443
0.037293
0.034354
0.029252
0.023819
0.019133
0.015505
0.012860
0.011007
0.009766
0.009005
0.008643
0.000167
0.001170
0.003232
0.006452
0.010918
0.016577
0.022999
0.029140
0.033370
0.034250
0.031804
0.027437
0.022690
0.018500
0.015183
0.012713
0.010955
0.009764
0.009027
0.008674
0.000154
0.001077
0.002953
0.005829
0.009715
0.014490
0.019769
0.024726
0.028177
0.029073
0.027411
0.024198
0.020541
0.017171
0.014393
0.012250
0.010679
0.009592
0.008909
0.008578
0.000137
0.000959
0.002608
0.005080
0.008323
0.012173
0.016294
0.020080
0.022750
0.023639
0.022726
0.020629
0.018062
0.015547
0.013361
0.011598
0.010257
0.009302
0.008691
0.008389
0.000119
0.000840
0.002267
0.004361
0.007033
0.010106
0.013296
0.016170
0.018236
0.019100
0.018733
0.017480
0.015772
0.013970
0.012305
0.010894
0.009777
0.008956
0.008420
0.008151
0.000104
0.000738
0.001977
0.003766
0.005995
0.008497
0.011032
0.013289
0.014952
0.015784
0.015753
0.015048
0.013928
0.012641
0.011374
0.010245
0.009316
0.008613
0.008144
0.007906
0.000093
0.000660
0.001760
0.003328
0.005250
0.007370
0.009485
0.011359
0.012775
0.013576
0.013731
0.013348
0.012593
0.011643
0.010648
0.009721
0.008932
0.008320
0.007904
0.007690
0.000085
0.000609
0.001619
0.003047
0.004781
0.006673
0.008544
0.010201
0.011477
0.012256
0.012504
0.012294
0.011743
0.010988
0.010159
0.009359
0.008660
0.008108
0.007728
0.007531
0.000081
0.000582
0.001547
0.002906
0.004551
0.006338
0.008099
0.009661
0.010874
0.011641
0.011927
0.011790
0.011327
0.010660
0.009908
0.009168
0.008514
0.007993
0.007632
0.007445


SCALARS Species_1 float 1 
LOOKUP_TABLE default 
0.000488
0.001461
0.002421
0.003360
0.004273
0.005151
0.005988
0.006780
0.007519
0.008203
0.008828
0.009390
0.009890
0.010325
0.010696
0.011003
0.011247
0.011429
0.011550
0.011611
0.000487
0.001457
0.002414
0.003351
0.004262
0.005138
0.005973
0.006762
0.007500
0.008183
0.008806
0.009367
0.009865
0.010299
0.010669
0.010976
0.011220
0.011401
0.011522
0.011582
0.000485
0.001450
0.002403
0.003336
0.004242
0.005114
0.005945
0.006731
0.007466
0.008146
0.008766
0.009325
0.009821
0.010253
0.010621
0.010927
0.011169
0.011350
0.011470
0.011530
0.000482
0.001440
0.002387
0.003313
0.004213
0.005079
0.005906
0.006686
0.007417
0.008092
0.008708
0.009264
0.009756
0.010185
0.010552
0.010855
0.011096
0.011276
0.011395
0.011455
0.000477
0.001428
0.002366
0.003284
0.004176
0.005035
0.005854
0.006628
0.007352
0.008022
0.008633
0.009183
0.009672
0.010097
0.010460
0.010760
0.011000
0.011178
0.011296
0.011355
0.000472
0.001412
0.002340
0.003248
0.004131
0.004980
0.005790
0.006556
0.007273
0.007935
0.008540
0.009084
0.009567
0.009988
0.010347
0.010644
0.010881
0.011057
0.011174
0.011233
0.000466
0.001394
0.002310
0.003207
0.004077
0.004916
0.005716
0.006472
0.007179
0.007833
0.008430
0.008967
0.009444
0.009859
0.010213
0.010507
0.010740
0.010914
0.011030
0.011088
0.000459
0.001373
0.002276
0.003159
0.004017
0.004843
0.005631
0.006376
0.007072
0.007717
0.008304
0.008834
0.009303
0.009712
0.010060
0.010350
0.010580
0.010751
0.010865
0.010922
0.000452
0.001351
0.002238
0.003107
0.003951
0.004763
0.005538
0.006270
0.006954
0.007587
0.008165
0.008685
0.009146
0.009548
0.009891
0.010175
0.010401
0.010570
0.010682
0.010738
0.000443
0.001326
0.002198
0.003051
0.003879
0.004676
0.005437
0.006155
0.006827
0.007447
0.008014
0.008524
0.008976
0.009370
0.009707
0.009986
0.010208
0.010374
0.010485
0.010540
0.000435
0.001301
0.002155
0.002992
0.003804
0.004586
0.005331
0.006034
0.006692
0.007300
0.007854
0.008353
0.008797
0.009183
0.009513
0.009787
0.010005
0.010168
0.010276
0.010330
0.000426
0.001275
0.002112
0.002932
0.003727
0.004493
0.005222
0.005910
0.006554
0.007148
0.007690
0.008179
0.008612
0.008991
0.009314
0.009582
0.009796
0.009956
0.010062
0.010115
0.000417
0.001249
0.002069
0.002872
0.003650
0.004399
0.005113
0.005786
0.006415
0.006996
0.007526
0.008004
0.008429
0.008799
0.009116
0.009379
0.009588
0.009745
0.009849
0.009901
0.000409
0.001223
0.002027
0.002813
0.003576
0.004309
0.005007
0.005666
0.006281
0.006849
0.007368
0.007835
0.008251
0.008614
0.008924
0.009181
0.009387
0.009540
0.009643
0.009694
0.000401
0.001199
0.001987
0.002758
0.003505
0.004223
0.004907
0.005552
0.006155
0.006711
0.007219
0.007678
0.008085
0.008440
0.008744
0.008997
0.009199
0.009349
0.009450
0.009500
0.000394
0.001178
0.001951
0.002708
0.003442
0.004147
0.004818
0.005451
0.006042
0.006588
0.007086
0.007536
0.007936
0.008285
0.008584
0.008832
0.009030
0.009178
0.009277
0.009326
0.000388
0.001160
0.001921
0.002666
0.003388
0.004081
0.004741
0.005364
0.005945
0.006483
0.006974
0.007416
0.007810
0.008154
0.008448
0.008692
0.008887
0.009033
0.009130
0.009179
0.000383
0.001145
0.001897
0.002632
0.003345
0.004030
0.004681
0.005296
0.005870
0.006400
0.006885
0.007322
0.007711
0.008050
0.008341
0.008583
0.008775
0.008919
0.009015
0.009063
0.000380
0.001135
0.001880
0.002609
0.003316
0.003994
0.004640
0.005249
0.005818
0.006344
0.006824
0.007257
0.007643
0.007979
0.008268
0.008507
0.008698
0.008841
0.008936
0.008984
0.000378
0.001130
0.001872
0.002597
0.003301
0.003976
0.004619
0.005225
0.005791
0.006315
0.006793
0.007224
0.007608
0.007943
0.008230
0.008469
0.008659
0.008801
0.008896
0.008943


SCALARS Species_2 float 1 
LOOKUP_TABLE default 
0.000223
0.000663
0.001088
0.001489
0.001857
0.002187
0.002474
0.002716
0.002911
0.003060
0.003167
0.003237
0.003275
0.003287
0.003281
0.003263
0.003240
0.003218
0.003200
0.003191
0.000225
0.000669
0.001098
0.001502
0.001874
0.002208
0.002497
0.002741
0.002938
0.003089
0.003198
0.003269
0.003307
0.003320
0.003314
0.003296
0.003274
0.003251
0.003234
0.003224
0.000229
0.000681
0.001118
0.001530
0.001909
0.002249
0.002544
0.002792
0.002993
0.003147
0.003258
0.003331
0.003370
0.003384
0.003378
0.003361
0.003338
0.003315
0.003297
0.003288
0.000235
0.000700
0.001149