# vtk DataFile Version 2.0
generated by CFD-lab course output (written by Tobias Neckel) 
ASCII

DATASET STRUCTURED_GRID
DIMENSIONS  81 26 1 
POINTS 2106 float

0.000000 0.000000 0
0.125000 0.000000 0
0.250000 0.000000 0
0.375000 0.000000 0
0.500000 0.000000 0
0.625000 0.000000 0
0.750000 0.000000 0
0.875000 0.000000 0
1.000000 0.000000 0
1.125000 0.000000 0
1.250000 0.000000 0
1.375000 0.000000 0
1.500000 0.000000 0
1.625000 0.000000 0
1.750000 0.000000 0
1.875000 0.000000 0
2.000000 0.000000 0
2.125000 0.000000 0
2.250000 0.000000 0
2.375000 0.000000 0
2.500000 0.000000 0
2.625000 0.000000 0
2.750000 0.000000 0
2.875000 0.000000 0
3.000000 0.000000 0
3.125000 0.000000 0
3.250000 0.000000 0
3.375000 0.000000 0
3.500000 0.000000 0
3.625000 0.000000 0
3.750000 0.000000 0
3.875000 0.000000 0
4.000000 0.000000 0
4.125000 0.000000 0
4.250000 0.000000 0
4.375000 0.000000 0
4.500000 0.000000 0
4.625000 0.000000 0
4.750000 0.000000 0
4.875000 0.000000 0
5.000000 0.000000 0
5.125000 0.000000 0
5.250000 0.000000 0
5.375000 0.000000 0
5.500000 0.000000 0
5.625000 0.000000 0
5.750000 0.000000 0
5.875000 0.000000 0
6.000000 0.000000 0
6.125000 0.000000 0
6.250000 0.000000 0
6.375000 0.000000 0
6.500000 0.000000 0
6.625000 0.000000 0
6.750000 0.000000 0
6.875000 0.000000 0
7.000000 0.000000 0
7.125000 0.000000 0
7.250000 0.000000 0
7.375000 0.000000 0
7.500000 0.000000 0
7.625000 0.000000 0
7.750000 0.000000 0
7.875000 0.000000 0
8.000000 0.000000 0
8.125000 0.000000 0
8.250000 0.000000 0
8.375000 0.000000 0
8.500000 0.000000 0
8.625000 0.000000 0
8.750000 0.000000 0
8.875000 0.000000 0
9.000000 0.000000 0
9.125000 0.000000 0
9.250000 0.000000 0
9.375000 0.000000 0
9.500000 0.000000 0
9.625000 0.000000 0
9.750000 0.000000 0
9.875000 0.000000 0
10.000000 0.000000 0
0.000000 0.080000 0
0.125000 0.080000 0
0.250000 0.080000 0
0.375000 0.080000 0
0.500000 0.080000 0
0.625000 0.080000 0
0.750000 0.080000 0
0.875000 0.080000 0
1.000000 0.080000 0
1.125000 0.080000 0
1.250000 0.080000 0
1.375000 0.080000 0
1.500000 0.080000 0
1.625000 0.080000 0
1.750000 0.080000 0
1.875000 0.080000 0
2.000000 0.080000 0
2.125000 0.080000 0
2.250000 0.080000 0
2.375000 0.080000 0
2.500000 0.080000 0
2.625000 0.080000 0
2.750000 0.080000 0
2.875000 0.080000 0
3.000000 0.080000 0
3.125000 0.080000 0
3.250000 0.080000 0
3.375000 0.080000 0
3.500000 0.080000 0
3.625000 0.080000 0
3.750000 0.080000 0
3.875000 0.080000 0
4.000000 0.080000 0
4.125000 0.080000 0
4.250000 0.080000 0
4.375000 0.080000 0
4.500000 0.080000 0
4.625000 0.080000 0
4.750000 0.080000 0
4.875000 0.080000 0
5.000000 0.080000 0
5.125000 0.080000 0
5.250000 0.080000 0
5.375000 0.080000 0
5.500000 0.080000 0
5.625000 0.080000 0
5.750000 0.080000 0
5.875000 0.080000 0
6.000000 0.080000 0
6.125000 0.080000 0
6.250000 0.080000 0
6.375000 0.080000 0
6.500000 0.080000 0
6.625000 0.080000 0
6.750000 0.080000 0
6.875000 0.080000 0
7.000000 0.080000 0
7.125000 0.080000 0
7.250000 0.080000 0
7.375000 0.080000 0
7.500000 0.080000 0
7.625000 0.080000 0
7.750000 0.080000 0
7.875000 0.080000 0
8.000000 0.080000 0
8.125000 0.080000 0
8.250000 0.080000 0
8.375000 0.080000 0
8.500000 0.080000 0
8.625000 0.080000 0
8.750000 0.080000 0
8.875000 0.080000 0
9.000000 0.080000 0
9.125000 0.080000 0
9.250000 0.080000 0
9.375000 0.080000 0
9.500000 0.080000 0
9.625000 0.080000 0
9.750000 0.080000 0
9.875000 0.080000 0
10.000000 0.080000 0
0.000000 0.160000 0
0.125000 0.160000 0
0.250000 0.160000 0
0.375000 0.160000 0
0.500000 0.160000 0
0.625000 0.160000 0
0.750000 0.160000 0
0.875000 0.160000 0
1.000000 0.160000 0
1.125000 0.160000 0
1.250000 0.160000 0
1.375000 0.160000 0
1.500000 0.160000 0
1.625000 0.160000 0
1.750000 0.160000 0
1.875000 0.160000 0
2.000000 0.160000 0
2.125000 0.160000 0
2.250000 0.160000 0
2.375000 0.160000 0
2.500000 0.160000 0
2.625000 0.160000 0
2.750000 0.160000 0
2.875000 0.160000 0
3.000000 0.160000 0
3.125000 0.160000 0
3.250000 0.160000 0
3.375000 0.160000 0
3.500000 0.160000 0
3.625000 0.160000 0
3.750000 0.160000 0
3.875000 0.160000 0
4.000000 0.160000 0
4.125000 0.160000 0
4.250000 0.160000 0
4.375000 0.160000 0
4.500000 0.160000 0
4.625000 0.160000 0
4.750000 0.160000 0
4.875000 0.160000 0
5.000000 0.160000 0
5.125000 0.160000 0
5.250000 0.160000 0
5.375000 0.160000 0
5.500000 0.160000 0
5.625000 0.160000 0
5.750000 0.160000 0
5.875000 0.160000 0
6.000000 0.160000 0
6.125000 0.160000 0
6.250000 0.160000 0
6.375000 0.160000 0
6.500000 0.160000 0
6.625000 0.160000 0
6.750000 0.160000 0
6.875000 0.160000 0
7.000000 0.160000 0
7.125000 0.160000 0
7.250000 0.160000 0
7.375000 0.160000 0
7.500000 0.160000 0
7.625000 0.160000 0
7.750000 0.160000 0
7.875000 0.160000 0
8.000000 0.160000 0
8.125000 0.160000 0
8.250000 0.160000 0
8.375000 0.160000 0
8.500000 0.160000 0
8.625000 0.160000 0
8.750000 0.160000 0
8.875000 0.160000 0
9.000000 0.160000 0
9.125000 0.160000 0
9.250000 0.160000 0
9.375000 0.160000 0
9.500000 0.160000 0
9.625000 0.160000 0
9.750000 0.160000 0
9.875000 0.160000 0
10.000000 0.160000 0
0.000000 0.240000 0
0.125000 0.240000 0
0.250000 0.240000 0
0.375000 0.240000 0
0.500000 0.240000 0
0.625000 0.240000 0
0.750000 0.240000 0
0.875000 0.240000 0
1.000000 0.240000 0
1.125000 0.240000 0
1.250000 0.240000 0
1.375000 0.240000 0
1.500000 0.240000 0
1.625000 0.240000 0
1.750000 0.240000 0
1.875000 0.240000 0
2.000000 0.240000 0
2.125000 0.240000 0
2.250000 0.240000 0
2.375000 0.240000 0
2.500000 0.240000 0
2.625000 0.240000 0
2.750000 0.240000 0
2.875000 0.240000 0
3.000000 0.240000 0
3.125000 0.240000 0
3.250000 0.240000 0
3.375000 0.240000 0
3.500000 0.240000 0
3.625000 0.240000 0
3.750000 0.240000 0
3.875000 0.240000 0
4.000000 0.240000 0
4.125000 0.240000 0
4.250000 0.240000 0
4.375000 0.240000 0
4.500000 0.240000 0
4.625000 0.240000 0
4.750000 0.240000 0
4.875000 0.240000 0
5.000000 0.240000 0
5.125000 0.240000 0
5.250000 0.240000 0
5.375000 0.240000 0
5.500000 0.240000 0
5.625000 0.240000 0
5.750000 0.240000 0
5.875000 0.240000 0
6.000000 0.240000 0
6.125000 0.240000 0
6.250000 0.240000 0
6.375000 0.240000 0
6.500000 0.240000 0
6.625000 0.240000 0
6.750000 0.240000 0
6.875000 0.240000 0
7.000000 0.240000 0
7.125000 0.240000 0
7.250000 0.240000 0
7.375000 0.240000 0
7.500000 0.240000 0
7.625000 0.240000 0
7.750000 0.240000 0
7.875000 0.240000 0
8.000000 0.240000 0
8.125000 0.240000 0
8.250000 0.240000 0
8.375000 0.240000 0
8.500000 0.240000 0
8.625000 0.240000 0
8.750000 0.240000 0
8.875000 0.240000 0
9.000000 0.240000 0
9.125000 0.240000 0
9.250000 0.240000 0
9.375000 0.240000 0
9.500000 0.240000 0
9.625000 0.240000 0
9.750000 0.240000 0
9.875000 0.240000 0
10.000000 0.240000 0
0.000000 0.320000 0
0.125000 0.320000 0
0.250000 0.320000 0
0.375000 0.320000 0
0.500000 0.320000 0
0.625000 0.320000 0
0.750000 0.320000 0
0.875000 0.320000 0
1.000000 0.320000 0
1.125000 0.320000 0
1.250000 0.320000 0
1.375000 0.320000 0
1.500000 0.320000 0
1.625000 0.320000 0
1.750000 0.320000 0
1.875000 0.320000 0
2.000000 0.320000 0
2.125000 0.320000 0
2.250000 0.320000 0
2.375000 0.320000 0
2.500000 0.320000 0
2.625000 0.320000 0
2.750000 0.320000 0
2.875000 0.320000 0
3.000000 0.320000 0
3.125000 0.320000 0
3.250000 0.320000 0
3.375000 0.320000 0
3.500000 0.320000 0
3.625000 0.320000 0
3.750000 0.320000 0
3.875000 0.320000 0
4.000000 0.320000 0
4.125000 0.320000 0
4.250000 0.320000 0
4.375000 0.320000 0
4.500000 0.320000 0
4.625000 0.320000 0
4.750000 0.320000 0
4.875000 0.320000 0
5.000000 0.320000 0
5.125000 0.320000 0
5.250000 0.320000 0
5.375000 0.320000 0
5.500000 0.320000 0
5.625000 0.320000 0
5.750000 0.320000 0
5.875000 0.320000 0
6.000000 0.320000 0
6.125000 0.320000 0
6.250000 0.320000 0
6.375000 0.320000 0
6.500000 0.320000 0
6.625000 0.320000 0
6.750000 0.320000 0
6.875000 0.320000 0
7.000000 0.320000 0
7.125000 0.320000 0
7.250000 0.320000 0
7.375000 0.320000 0
7.500000 0.320000 0
7.625000 0.320000 0
7.750000 0.320000 0
7.875000 0.320000 0
8.000000 0.320000 0
8.125000 0.320000 0
8.250000 0.320000 0
8.375000 0.320000 0
8.500000 0.320000 0
8.625000 0.320000 0
8.750000 0.320000 0
8.875000 0.320000 0
9.000000 0.320000 0
9.125000 0.320000 0
9.250000 0.320000 0
9.375000 0.320000 0
9.500000 0.320000 0
9.625000 0.320000 0
9.750000 0.320000 0
9.875000 0.320000 0
10.000000 0.320000 0
0.000000 0.400000 0
0.125000 0.400000 0
0.250000 0.400000 0
0.375000 0.400000 0
0.500000 0.400000 0
0.625000 0.400000 0
0.750000 0.400000 0
0.875000 0.400000 0
1.000000 0.400000 0
1.125000 0.400000 0
1.250000 0.400000 0
1.375000 0.400000 0
1.500000 0.400000 0
1.625000 0.400000 0
1.750000 0.400000 0
1.875000 0.400000 0
2.000000 0.400000 0
2.125000 0.400000 0
2.250000 0.400000 0
2.375000 0.400000 0
2.500000 0.400000 0
2.625000 0.400000 0
2.750000 0.400000 0
2.875000 0.400000 0
3.000000 0.400000 0
3.125000 0.400000 0
3.250000 0.400000 0
3.375000 0.400000 0
3.500000 0.400000 0
3.625000 0.400000 0
3.750000 0.400000 0
3.875000 0.400000 0
4.000000 0.400000 0
4.125000 0.400000 0
4.250000 0.400000 0
4.375000 0.400000 0
4.500000 0.400000 0
4.625000 0.400000 0
4.750000 0.400000 0
4.875000 0.400000 0
5.000000 0.400000 0
5.125000 0.400000 0
5.250000 0.400000 0
5.375000 0.400000 0
5.500000 0.400000 0
5.625000 0.400000 0
5.750000 0.400000 0
5.875000 0.400000 0
6.000000 0.400000 0
6.125000 0.400000 0
6.250000 0.400000 0
6.375000 0.400000 0
6.500000 0.400000 0
6.625000 0.400000 0
6.750000 0.400000 0
6.875000 0.400000 0
7.000000 0.400000 0
7.125000 0.400000 0
7.250000 0.400000 0
7.375000 0.400000 0
7.500000 0.400000 0
7.625000 0.400000 0
7.750000 0.400000 0
7.875000 0.400000 0
8.000000 0.400000 0
8.125000 0.400000 0
8.250000 0.400000 0
8.375000 0.400000 0
8.500000 0.400000 0
8.625000 0.400000 0
8.750000 0.400000 0
8.875000 0.400000 0
9.000000 0.400000 0
9.125000 0.400000 0
9.250000 0.400000 0
9.375000 0.400000 0
9.500000 0.400000 0
9.625000 0.400000 0
9.750000 0.400000 0
9.875000 0.400000 0
10.000000 0.400000 0
0.000000 0.480000 0
0.125000 0.480000 0
0.250000 0.480000 0
0.375000 0.480000 0
0.500000 0.480000 0
[...]
POINT_DATA 2106 

VECTORS velocity float
0.500000 0.000000 0
0.000001 0.000000 0
0.000002 0.000000 0
0.000004 0.000000 0
0.000005 0.000000 0
0.000007 0.000000 0
0.000008 0.000000 0
0.000011 0.000000 0
0.000015 0.000000 0
0.000021 0.000000 0
0.000029 0.000000 0
0.000045 0.000000 0
0.000074 0.000000 0
0.000132 0.000000 0
0.000228 0.000000 0
0.000252 0.000000 0
-0.000224 0.000000 0
-0.000273 0.000000 0
0.000117 0.000000 0
0.000217 0.000000 0
0.000061 0.000000 0
0.000025 0.000000 0
0.000137 0.000000 0
0.000230 0.000000 0
0.000230 0.000000 0
0.000175 0.000000 0
0.000124 0.000000 0
0.000096 0.000000 0
0.000084 0.000000 0
0.000071 0.000000 0
0.000055 0.000000 0
0.000048 0.000000 0
0.000111 0.000000 0
0.000637 0.000000 0
0.000001 0.000000 0
0.000000 0.000000 0
0.000000 0.000000 0
0.000000 0.000000 0
0.000000 0.000000 0
0.000000 0.000000 0
-0.000033 0.000000 0
-0.000235 0.000000 0
-0.000094 0.000000 0
0.000007 0.000000 0
0.000064 0.000000 0
0.000076 0.000000 0
0.000049 0.000000 0
-0.000004 0.000000 0
-0.000066 0.000000 0
-0.000110 0.000000 0
-0.000120 0.000000 0
-0.000091 0.000000 0
-0.000058 0.000000 0
-0.000073 0.000000 0
0.000137 0.000000 0
0.002288 0.000000 0
-0.003208 0.000000 0
0.000805 0.000000 0
-0.000050 0.000000 0
0.000027 0.000000 0
0.000022 0.000000 0
-0.000025 0.000000 0
-0.000058 0.000000 0
-0.000069 0.000000 0
-0.000048 0.000000 0
-0.000016 0.000000 0
0.000004 0.000000 0
0.000020 0.000000 0
0.000033 0.000000 0
0.000054 0.000000 0
0.000079 0.000000 0
0.000103 0.000000 0
0.000129 0.000000 0
0.000151 0.000000 0
0.000171 0.000000 0
0.000189 0.000000 0
0.000206 0.000000 0
0.000227 0.000000 0
0.000248 0.000000 0
0.000261 0.000000 0
0.000266 0.000000 0
1.000000 -0.001831 0
1.007169 -0.006250 0
1.022558 -0.011914 0
1.047418 -0.018652 0
1.083477 -0.026778 0
1.133159 -0.036762 0
1.199710 -0.049417 0
1.287961 -0.064618 0
1.401453 -0.086763 0
1.556495 -0.117948 0
1.766935 -0.169629 0
2.075838 -0.237745 0
2.496194 -0.336423 0
3.111600 -0.452861 0
3.928439 -0.660505 0
5.274832 -0.700737 0
6.153770 -0.470306 0
6.659720 -0.293484 0
6.982938 -0.206707 0
7.245241 -0.177020 0
7.506832 -0.158193 0
7.727775 -0.126387 0
7.889326 -0.087507 0
7.990943 -0.050050 0
8.043153 -0.018416 0
8.053520 0.012666 0
8.019044 0.050365 0
7.922055 0.109564 0
7.720198 0.202948 0
7.350453 0.327244 0
6.779674 0.474380 0
5.924890 0.637420 0
4.782182 0.838914 0
3.367487 1.000810 0
1.722946 1.037772 0
0.000000 0.000001 0
0.000000 -0.514798 0
0.000000 0.000000 0
0.000000 -0.900930 0
0.000000 0.000020 0
-2.161638 1.312932 0
-3.202324 0.569498 0
-3.551547 0.229398 0
-3.771533 0.108352 0
-3.876994 0.055382 0
-3.934110 0.028640 0
-3.965659 0.014118 0
-3.977357 0.003665 0
-3.971826 -0.006830 0
-3.948393 -0.021126 0
-3.897037 -0.046877 0
-3.789078 -0.101880 0
-3.549383 -0.222404 0
-3.033914 -0.519486 0
-1.873170 -1.282522 0
1.104364 -2.923222 0
6.035204 -2.967714 0
8.538062 -1.376922 0
9.637228 -0.561993 0
9.988355 -0.184032 0
10.063870 -0.049120 0
10.084356 -0.012008 0
10.088724 -0.001808 0
10.089203 0.000502 0
10.089638 0.000431 0
10.091989 0.000438 0
10.092729 0.000793 0
10.094205 0.001580 0
10.093105 0.003078 0
10.089143 0.003838 0
10.085429 0.003650 0
10.082481 0.003461 0
10.079310 0.003191 0
10.076970 0.002437 0
10.076234 0.001641 0
10.076618 0.001429 0
10.076671 0.002007 0
10.075004 0.002857 0
10.071828 0.003090 0
10.068737 0.001639 0
10.068149 0.000338 0
1.000000 -0.004590 0
1.008221 -0.014440 0
1.024715 -0.025761 0
1.050342 -0.038990 0
1.086629 -0.054876 0
1.135823 -0.074391 0
1.201075 -0.099075 0
1.286610 -0.129117 0
1.398236 -0.171863 0
1.544663 -0.233910 0
1.750901 -0.332380 0
2.030497 -0.466726 0
2.436348 -0.662888 0
3.018262 -0.916637 0
3.864029 -1.384469 0
5.373298 -1.424212 0
6.024336 -0.886328 0
6.359862 -0.530667 0
6.557883 -0.374733 0
6.739890 -0.335292 0
6.975745 -0.308821 0
7.173900 -0.244796 0
7.311651 -0.168427 0
7.396941 -0.098449 0
7.443219 -0.040050 0
7.460574 0.015429 0
7.451323 0.084137 0
7.403648 0.191260 0
7.291654 0.365824 0
7.047372 0.601934 0
6.563090 0.912359 0
5.812019 1.278394 0
4.731649 1.636737 0
3.424757 1.957909 0
1.822135 2.155190 0
0.000000 -0.000066 0
0.000000 -1.102751 0
0.000000 0.000000 0
0.000000 -1.383562 0
0.000000 -0.000115 0
-1.171250 2.049485 0
-1.734244 0.889541 0
-2.035624 0.364293 0
-2.247163 0.208285 0
-2.335788 0.104048 0
-2.400567 0.056745 0
-2.435900 0.027677 0
-2.445581 0.003947 0
-2.435209 -0.018537 0
-2.408868 -0.047865 0
-2.359441 -0.101962 0
-2.260445 -0.222498 0
-2.023763 -0.483304 0
-1.464781 -1.072775 0
-0.021030 -2.648497 0
2.476038 -5.061359 0
5.765725 -4.757566 0
7.125701 -2.305294 0
7.694357 -0.928187 0
7.736219 -0.273050 0
7.668925 -0.061440 0
7.661092 -0.015906 0
7.658351 -0.003102 0
7.658177 -0.000585 0
7.658499 -0.001783 0
7.665058 -0.001979 0
7.666287 -0.001419 0
7.672151 -0.000241 0
7.675009 0.003239 0
7.673055 0.004912 0
7.672461 0.004263 0
7.673680 0.003916 0
7.673589 0.003526 0
7.674099 0.001968 0
7.676610 0.000225 0
7.680809 -0.000280 0
7.685129 0.001032 0
7.687302 0.003099 0
7.687154 0.004011 0
7.686218 0.002354 0
7.685801 0.000761 0
1.000000 -0.007093 0
1.007365 -0.022069 0
1.022801 -0.038872 0
1.046878 -0.058278 0
1.080943 -0.081487 0
1.127049 -0.110008 0
1.188166 -0.145921 0
1.267787 -0.190801 0
1.375355 -0.251918 0
1.508078 -0.343654 0
1.695747 -0.480563 0
1.946102 -0.676432 0
2.298098 -0.968592 0
2.814773 -1.366577 0
3.632303 -2.167728 0
5.227851 -2.083333 0
5.420467 -1.101707 0
5.381286 -0.634954 0
5.336332 -0.449925 0
5.313284 -0.444451 0
5.517876 -0.435961 0
5.684476 -0.341367 0
5.790723 -0.230252 0
5.849683 -0.134253 0
5.882549 -0.059142 0
5.903777 0.007479 0
5.921630 0.086798 0
5.939284 0.211751 0
5.962118 0.430964 0
5.930530 0.793525 0
5.679850 1.265005 0
5.140771 1.809542 0
4.319074 2.366761 0
3.148276 2.862899 0
1.714662 3.229617 0
0.000000 0.000022 0
0.000000 -1.680943 0
0.000000 0.000000 0
0.000000 -1.650284 0
0.000000 0.000265 0
-0.664480 2.422847 0
-0.950198 1.122697 0
-1.254791 0.557666 0
-1.395856 0.300457 0
-1.489571 0.153560 0
-1.580116 0.092711 0
-1.615018 0.042927 0
-1.607735 0.003223 0
-1.567816 -0.030326 0
-1.514285 -0.069617 0
-1.448652 -0.141867 0
-1.355210 -0.316714 0
-1.158646 -0.731629 0
-0.613330 -1.801235 0
0.788634 -3.804646 0
2.501110 -6.626745 0
5.124523 -5.943498 0
4.841201 -2.611246 0
4.712181 -0.952725 0
4.337250 -0.167755 0
3.810256 -0.001039 0
3.789145 -0.005241 0
3.764924 0.000057 0
3.775981 0.000407 0
3.758597 -0.003973 0
3.796105 -0.004547 0
3.784361 -0.003747 0
3.808441 -0.004002 0
3.826987 0.002499 0
3.821938 0.005468 0
3.822183 0.003250 0
3.832748 0.002739 0
3.834344 0.002923 0
3.835224 0.000503 0
3.842429 -0.002654 0
3.854359 -0.004024 0
3.869511 -0.002148 0
3.880645 0.001561 0
3.882217 0.003783 0
3.885679 0.002505 0
3.885682 0.000888 0
1.000000 -0.009304 0
1.006262 -0.029034 0
1.020461 -0.051050 0
1.042533 -0.076201 0
1.073690 -0.106186 0
1.115780 -0.143014 0
1.171299 -0.189147 0
1.243540 -0.248918 0
1.339973 -0.325650 0
1.459234 -0.438961 0
1.619652 -0.612716 0
1.825396 -0.852231 0
2.093025 -1.218837 0
2.473903 -1.770528 0
3.103461 -2.928839 0
4.367773 -2.568637 0
3.650614 -0.984526 0
3.036973 -0.476820 0
2.658499 -0.331212 0
2.270246 -0.451480 0
3.087955 -0.546384 0
3.491212 -0.419418 0
3.668524 -0.274160 0
3.746554 -0.157219 0
3.784552 -0.074670 0
3.811888 -0.009583 0
3.842544 0.061412 0
3.887775 0.165348 0
3.969761 0.371427 0
4.102221 0.782586 0
4.221578 1.417804 0
4.046290 2.149290 0
3.542681 2.911934 0
2.648383 3.624733 0
1.482880 4.170086 0
0.000000 0.000050 0
0.000000 -2.200019 0
0.000000 0.000000 0
0.000000 -1.808559 0
0.000000 0.000154 0
-0.395665 2.657611 0
-0.611292 1.267339 0
-0.800859 0.649513 0
-0.927439 0.358544 0
-1.060360 0.221975 0
-1.142385 0.137031 0
-1.192319 0.045354 0
-1.168561 -0.026262 0
-1.092638 -0.078345 0
-0.949143 -0.124130 0
-0.830468 -0.203769 0
-0.758211 -0.408102 0
-0.565454 -0.958108 0
-0.055175 -2.319034 0
0.883490 -4.641739 0
2.141993 -7.836327 0
3.850507 -6.255223 0
1.583243 -2.041395 0
0.363003 -0.605658 0
0.094611 0.304181 0
0.133061 0.289347 0
0.782927 0.013106 0
0.197294 0.005323 0
0.842470 0.003464 0
0.121481 -0.014663 0
0.791400 -0.018468 0
0.559784 -0.009314 0
0.792929 -0.027522 0
0.860848 -0.005399 0
0.811388 0.007986 0
0.734192 -0.002655 0
0.741308 -0.003868 0
0.750733 0.001941 0
0.757559 -0.003206 0
0.798599 -0.012022 0
0.841314 -0.017613 0
0.890797 -0.015791 0
0.956212 -0.005033 0
0.945221 0.000788 0
0.935447 0.000136 0
0.935587 0.000771 0
1.000000 -0.011102 0
1.004526 -0.035165 0
1.017519 -0.062086 0
1.037084 -0.092345 0
1.064576 -0.128365 0
1.101640 -0.172478 0
1.150119 -0.227688 0
1.212827 -0.298753 0
1.292432 -0.389962 0
1.398275 -0.522649 0
1.526237 -0.714907 0
1.654547 -0.979391 0
1.842895 -1.383637 0
2.050152 -2.013256 0
2.307501 -3.379805 0
1.997218 -2.433511 0
-0.006354 -0.249994 0
-0.001705 0.000000 0
0.000592 0.040780 0
0.108277 -0.719304 0
1.563402 -1.217379 0
2.162977 -0.712932 0
2.401540 -0.393672 0
2.495866 -0.208511 0
2.538034 -0.100956 0
2.564587 -0.029636 0
2.587209 0.038230 0
2.614125 0.130332 0
2.649270 0.293719 0
2.761201 0.632362 0
2.920099 1.300801 0
2.989742 2.244036 0
2.716424 3.261421 0
2.117621 4.181171 0
1.199788 4.924582 0
0.000000 0.000024 0
0.000000 -2.629984 0
0.000000 0.000000 0
0.000000 -1.903729 0
0.000000 0.000045 0
-0.244034 2.814074 0
-0.420799 1.382021 0
-0.603218 0.759999 0
-0.771044 0.466538 0
-0.930889 0.291126 0
-1.024850 0.177165 0
-1.042689 0.059680 0
-0.999922 -0.060573 0
-0.882969 -0.170754 0
-0.746762 -0.237406 0
-0.602895 -0.264063 0
-0.475806 -0.486323 0
-0.313966 -1.181572 0
0.135049 -2.728559 0
0.752903 -5.210833 0
1.479442 -8.525636 0
1.753295 -5.585898 0
0.000008 -0.379243 0
0.000139 0.000000 0
0.000191 -0.020592 0
-0.579075 -0.441561 0
-0.408992 -0.046351 0
-0.205470 -0.038051 0
-0.358058 0.048927 0
-0.209879 0.028711 0
-0.381517 -0.285061 0
-0.116239 -0.004726 0
0.068361 -0.196684 0
0.175213 -0.009316 0
0.113898 0.086528 0
-0.067748 0.048101 0
-0.049943 -0.007848 0
-0.073457 -0.007478 0
-0.131773 -0.030132 0
-0.060064 -0.056258 0
0.049611 -0.063031 0
0.142699 -0.075683 0
0.149081 -0.033271 0
0.137413 0.017073 0
0.169321 0.008670 0
0.169692 0.000711 0
1.000000 -0.012202 0
1.001348 -0.040247 0
1.013934 -0.071888 0
1.030513 -0.106318 0
1.053736 -0.147502 0
1.085042 -0.197762 0
1.125546 -0.260308 0
1.176737 -0.339999 0
1.240204 -0.444337 0
1.322200 -0.588597 0
1.408214 -0.776730 0
1.497309 -1.054892 0
1.594176 -1.472025 0
1.629814 -2.067876 0
1.449955 -2.894961 0
0.159996 0.000087 0
-1.162638 1.684348 0
-0.691221 0.000000 0
-0.410660 1.212743 0
0.000000 -0.000190 0
1.140121 -1.844689 0
1.568230 -0.955826 0
1.742203 -0.487209 0
1.786804 -0.244575 0
1.804387 -0.118652 0
1.827063 -0.041055 0
1.853004 0.029708 0
1.882429 0.125628 0
1.916975 0.277298 0
1.976280 0.609255 0
2.087237 1.271538 0
2.179019 2.279642 0
2.050065 3.470091 0
1.650000 4.595380 0
0.941724 5.525364 0
0.000000 -0.000011 0
0.000000 -2.967944 0
0.000000 0.000000 0
0.000000 -1.964853 0
0.000000 0.000043 0
-0.155313 2.926923 0
-0.306186 1.497217 0
-0.490738 0.873670 0
-0.638719 0.568253 0
-0.807036 0.384410 0
-0.916284 0.208583 0
-0.909130 0.029400 0
-0.833426 -0.128483 0
-0.740380 -0.240367 0
-0.614929 -0.303377 0
-0.501142 -0.377181 0
-0.291844 -0.593016 0
-0.136174 -1.349055 0
0.188974 -3.001830 0
0.534878 -5.502150 0
0.844762 -8.476579 0
0.242716 0.000020 0
0.116396 5.010007 0
1.086672 0.000000 0
1.062921 0.116931 0
0.000000 0.000043 0
-0.375801 -0.234436 0
-0.185410 -0.027275 0
-0.410677 0.006285 0
-0.003240 0.000351 0
-0.588503 -0.078398 0
-0.424777 -0.297237 0
-0.124752 -0.214051 0
-0.114722 -0.034543 0
-0.118578 0.163480 0
-0.383400 0.102202 0
-0.568371 -0.000214 0
-0.533854 0.054312 0
-0.363792 -0.011778 0
-0.329213 -0.128108 0
-0.366408 -0.147382 0
-0.299638 -0.079452 0
-0.336434 -0.001651 0
-0.377759 -0.012166 0
-0.375395 -0.020523 0
-0.374217 0.000295 0
1.000000 -0.011965 0
0.999424 -0.044084 0
1.009166 -0.080753 0
1.023198 -0.117818 0
1.042111 -0.163265 0
1.067169 -0.218437 0
1.098918 -0.286373 0
1.137770 -0.372134 0
1.184163 -0.483059 0
1.237610 -0.630175 0
1.292302 -0.826977 0
1.350462 -1.098407 0
1.361553 -1.468441 0
1.255409 -1.920954 0
0.887665 -2.439122 0
0.000000 0.000035 0
0.000000 1.357979 0
0.000000 0.000000 0
0.000000 1.472900 0
0.000000 -0.000157 0
0.679293 -2.204342 0
1.031393 -1.098265 0
1.134444 -0.533560 0
1.109062 -0.248309 0
1.085961 -0.126722 0
1.111512 -0.060752 0
1.153818 0.002796 0
1.191655 0.089391 0
1.249082 0.233654 0
1.324050 0.523394 0
1.456847 1.171048 0
1.559206 2.267826 0
1.514783 3.599994 0
1.249911 4.890510 0
0.714963 5.980581 0
0.000000 -0.000037 0
0.000000 -3.232748 0
0.000000 0.000000 0
0.000000 -2.003081 0
0.000000 0.000093 0
-0.098523 3.010032 0
-0.215090 1.596693 0
-0.352821 0.972820 0
-0.510770 0.668968 0
-0.722436 0.468768 0
-0.796861 0.242506 0
-0.791322 0.006651 0
-0.710571 -0.168573 0
-0.622356 -0.310592 0
-0.513340 -0.390518 0
-0.412861 -0.470838 0
-0.176772 -0.719902 0
-0.041881 -1.489295 0
0.162600 -3.158032 0
0.358297 -5.630538 0
0.451908 -8.338652 0
0.000000 0.000022 0
0.000000 4.821367 0
0.000000 0.000000 0
0.000000 0.189425 0
0.000000 0.000533 0
-0.156957 0.063877 0
-0.459314 -0.015731 0
-0.546505 -0.067662 0
-0.589901 0.142520 0
-0.627496 -0.015278 0
-0.473754 -0.301527 0
-0.596680 -0.395119 0
-0.530622 -0.013268 0
-0.501901 0.258482 0
-0.637044 0.335967 0
-0.914564 0.088442 0
-0.805019 -0.138409 0
-0.517182 -0.161103 0
-0.503205 -0.054584 0
-0.739415 -0.081959 0
-0.841206 -0.094866 0
-0.838878 0.016727 0
-0.888453 0.042007 0
-0.937621 0.006402 0
-0.936324 -0.000798 0
1.000000 -0.011835 0
1.000502 -0.046115 0
1.004456 -0.087103 0
1.015405 -0.127403 0
1.029633 -0.175644 0
1.048141 -0.234120 0
1.070900 -0.305493 0
1.097540 -0.394555 0
1.127223 -0.508234 0
1.158900 -0.657806 0
1.188994 -0.848956 0
1.194770 -1.099213 0
1.157274 -1.411191 0
0.999222 -1.764588 0
0.646851 -2.091499 0
0.000000 0.000008 0
0.000000 1.116164 0
0.000000 0.000000 0
0.000000 1.647562 0
0.000000 -0.000118 0
0.441172 -2.504780 0
0.732548 -1.247123 0
0.761515 -0.536917 0
0.762748 -0.213546 0
0.752211 -0.120220 0
0.777533 -0.084484 0
0.774030 -0.021584 0
0.790064 0.064659 0
0.755693 0.192566 0
0.934728 0.476286 0
0.995946 1.121038 0
1.121336 2.242564 0
1.119547 3.668040 0
0.934788 5.107265 0
0.527502 6.325307 0
0.000000 -0.000046 0
0.000000 -3.425555 0
0.000000 0.000000 0
0.000000 -2.027803 0
0.000000 0.000147 0
-0.062035 3.064580 0
-0.142111 1.659968 0
-0.253137 1.062905 0
-0.472134 0.804806 0
-0.644451 0.567509 0
-0.704039 0.252671 0
-0.686378 -0.025825 0
-0.614692 -0.236621 0
-0.482597 -0.366595 0
-0.404611 -0.437454 0
-0.296882 -0.592584 0
-0.149439 -0.830443 0
-0.011205 -1.566253 0
0.122945 -3.257944 0
0.239123 -5.687307 0
0.248660 -8.247268 0
0.000000 0.000058 0
0.000000 4.720824 0
0.000000 0.000000 0
0.000000 0.017012 0
0.000000 0.000576 0
-0.230326 0.059524 0
-0.244154 0.222035 0
-0.406192 0.089861 0
-0.319182 0.052185 0
-0.406854 -0.152733 0
-0.209805 -0.316959 0
-0.719634 -0.177656 0
-0.812178 -0.095202 0
-0.584566 0.231589 0
-0.453918 0.366306 0
-0.634104 0.107289 0
-0.601266 -0.200013 0
-0.468977 -0.204940 0
-0.409150 0.014121 0
-0.462447 0.068939 0
-0.481990 -0.015796 0
-0.498348 0.028587 0
-0.477160 0.051029 0
-0.516973 0.010115 0
-0.516138 -0.001368 0
1.000000 -0.012288 0
1.000072 -0.046937 0
1.000540 -0.090290 0
1.008454 -0.133932 0
1.017056 -0.184216 0
1.028672 -0.244849 0
1.042790 -0.317989 0
1.058365 -0.408182 0
1.073889 -0.522329 0
1.088578 -0.669709 0
1.093469 -0.849934 0
1.069517 -1.078107 0
0.999361 -1.343291 0
0.817313 -1.594284 0
0.477038 -1.799620 0
0.000000 -0.000003 0
0.000000 0.943956 0
0.000000 0.000000 0
0.000000 1.755310 0
0.000000 -0.000098 0
0.273766 -2.673174 0
0.410624 -1.303285 0
0.547447 -0.552888 0
0.656383 -0.242355 0
0.640910 -0.136184 0
0.661258 -0.074716 0
0.636290 -0.005224 0
0.532891 0.101126 0
0.492340 0.141069 0
0.521881 0.369632 0
0.746887 1.051619 0
0.832992 2.188722 0
0.835342 3.719384 0
0.687081 5.269418 0
0.395030 6.578846 0
0.000000 -0.000037 0
0.000000 -3.570350 0
0.000000 0.000000 0
0.000000 -2.042699 0
0.000000 0.000177 0
-0.034237 3.100983 0
-0.090666 1.718998 0
-0.200190 1.184035 0
-0.408553 0.919409 0
-0.479537 0.617187 0
-0.589387 0.269339 0
-0.573908 -0.050531 0
-0.484549 -0.298993 0
-0.367735 -0.445044 0
-0.290681 -0.509376 0
-0.170743 -0.634148 0
-0.113050 -0.902735 0
0.012540 -1.663622 0
0.103182 -3.318243 0
0.167824 -5.710995 0
0.150800 -8.185613 0
0.000000 0.000087 0
0.000000 4.662290 0
0.000000 0.000000 0
0.000000 0.041989 0
0.000000 0.000506 0
-0.209744 0.220134 0
0.217615 0.096823 0
0.195859 -0.019645 0
0.006477 0.142942 0
0.185649 -0.085280 0
-0.170803 -0.101348 0
-0.223223 -0.009601 0
-0.381168 -0.099712 0
-0.369870 0.029195 0
-0.256709 0.367671 0
-0.278317 0.182744 0
-0.344197 -0.244090 0
-0.386503 -0.284058 0
-0.403817 -0.058764 0
-0.228044 -0.035342 0
-0.082845 -0.071890 0
-0.097467 0.013635 0
-0.084924 0.053927 0
-0.049086 0.031348 0
-0.048890 -0.001874 0
1.000000 -0.011881 0
0.999146 -0.046461 0
0.999510 -0.092469 0
1.001085 -0.137974 0
1.005426 -0.188584 0
1.010869 -0.250590 0
1.017493 -0.324497 0
1.023706 -0.414459 0
1.028084 -0.527572 0
1.030791 -0.670338 0
1.008909 -0.836757 0
0.974286 -1.038984 0
0.866793 -1.249781 0
0.662564 -1.430302 0
0.374644 -1.568419 0
0.000000 -0.000011 0
0.000000 0.810841 0
0.000000 0.000000 0
0.000000 1.822786 0
0.000000 -0.000105 0
0.170448 -2.767580 0
0.258216 -1.422279 0
0.433533 -0.694203 0
0.566005 -0.273362 0
0.476372 -0.123341 0
0.566280 -0.081528 0
0.618986 0.060571 0
0.498855 0.156787 0
0.505016 0.199612 0
0.139890 0.313376 0
0.511470 0.921927 0
0.598389 2.185952 0
0.616690 3.761424 0
0.511675 5.389065 0
0.297065 6.765039 0
0.000000 -0.000013 0
0.000000 -3.678341 0
0.000000 0.000000 0
0.000000 -2.049684 0
0.000000 0.000177 0
-0.010351 3.122606 0
-0.042625 1.766178 0
-0.115426 1.266353 0
-0.198328 0.983588 0
-0.295572 0.683243 0
-0.395041 0.313068 0
-0.392980 -0.092922 0
-0.297310 -0.368572 0
-0.231092 -0.490671 0
-0.209597 -0.563529 0
-0.066098 -0.706269 0
-0.037973 -0.947745 0
0.035969 -1.704641 0
0.099852 -3.357326 0
0.133592 -5.717783 0
0.104696 -8.139861 0
0.000000 0.000095 0
0.000000 4.624349 0
0.000000 0.000000 0
0.000000 -0.116833 0
0.000000 0.000966 0
0.202646 -0.079750 0
0.254044 -0.037552 0
0.047383 0.224989 0
0.173960 0.058719 0
0.129930 -0.039274 0
-0.012581 -0.055282 0
-0.035676 -0.043023 0
-0.005643 -0.001349 0
-0.223607 0.151935 0
-0.190138 0.307712 0
-0.007832 0.163281 0
-0.078343 -0.130775 0
-0.220088 -0.166783 0
-0.252290 -0.087294 0
-0.153710 -0.136484 0
-0.340222 -0.099366 0
-0.359948 0.029917 0
-0.173074 0.020065 0
-0.090585 -0.012948 0
-0.090707 -0.001621 0
1.000000 -0.011742 0
0.999622 -0.046624 0
0.998329 -0.091532 0
0.996224 -0.137719 0
0.997410 -0.190479 0
0.997523 -0.252572 0
0.998257 -0.326206 0
0.996160 -0.414960 0
0.993417 -0.526864 0
0.975341 -0.657438 0
0.940973 -0.813771 0
0.868702 -0.987153 0
0.751893 -1.143789 0
0.557620 -1.279309 0
0.307656 -1.375580 0
0.000000 0.000012 0
0.000000 0.704199 0
0.000000 0.000000 0
0.000000 1.864391 0
0.000000 -0.000104 0
0.104859 -2.838432 0
0.175392 -1.471659 0
0.198709 -0.749873 0
0.296049 -0.269772 0
0.339810 -0.136360 0
0.479684 -0.165989 0
0.565002 0.037928 0
0.549031 0.174066 0
0.349081 0.370807 0
0.100742 0.365502 0
0.216302 0.758179 0
0.399039 2.121382 0
0.452648 3.774881 0
0.390456 5.473978 0
0.227703 6.906319 0
0.000000 0.000020 0
0.000000 -3.760414 0
0.000000 0.000000 0
0.000000 -2.049352 0
0.000000 0.000149 0
0.012748 3.128264 0
0.008788 1.786246 0
-0.008724 1.283685 0
0.014560 1.034702 0
-0.103728 0.743083 0
-0.102266 0.331680 0
-0.127540 -0.113079 0
-0.093305 -0.402601 0
-0.073470 -0.501179 0
-0.017412 -0.614972 0
-0.004168 -0.743988 0
0.002726 -0.968058 0
0.070236 -1.751830 0
0.113027 -3.380721 0
0.127060 -5.714095 0
0.088126 -8.100115 0
0.000000 0.000079 0
0.000000 4.595276 0
0.000000 0.000000 0
0.000000 0.171434 0
0.000000 0.000257 0
0.185671 0.057545 0
-0.138126 0.196191 0
0.075428 0.031609 0
0.164259 0.090111 0
0.088898 0.034105 0