# vtk DataFile Version 2.0
generated by CFD-lab course output (written by Tobias Neckel) 
ASCII

DATASET STRUCTURED_GRID
DIMENSIONS  81 26 1 
POINTS 2106 float

0.000000 0.000000 0
0.125000 0.000000 0
0.250000 0.000000 0
0.375000 0.000000 0
0.500000 0.000000 0
0.625000 0.000000 0
0.750000 0.000000 0
0.875000 0.000000 0
1.000000 0.000000 0
1.125000 0.000000 0
1.250000 0.000000 0
1.375000 0.000000 0
1.500000 0.000000 0
1.625000 0.000000 0
1.750000 0.000000 0
1.875000 0.000000 0
2.000000 0.000000 0
2.125000 0.000000 0
2.250000 0.000000 0
2.375000 0.000000 0
2.500000 0.000000 0
2.625000 0.000000 0
2.750000 0.000000 0
2.875000 0.000000 0
3.000000 0.000000 0
3.125000 0.000000 0
3.250000 0.000000 0
3.375000 0.000000 0
3.500000 0.000000 0
3.625000 0.000000 0
3.750000 0.000000 0
3.875000 0.000000 0
4.000000 0.000000 0
4.125000 0.000000 0
4.250000 0.000000 0
4.375000 0.000000 0
4.500000 0.000000 0
4.625000 0.000000 0
4.750000 0.000000 0
4.875000 0.000000 0
5.000000 0.000000 0
5.125000 0.000000 0
5.250000 0.000000 0
5.375000 0.000000 0
5.500000 0.000000 0
5.625000 0.000000 0
5.750000 0.000000 0
5.875000 0.000000 0
6.000000 0.000000 0
6.125000 0.000000 0
6.250000 0.000000 0
6.375000 0.000000 0
6.500000 0.000000 0
6.625000 0.000000 0
6.750000 0.000000 0
6.875000 0.000000 0
7.000000 0.000000 0
7.125000 0.000000 0
7.250000 0.000000 0
7.375000 0.000000 0
7.500000 0.000000 0
7.625000 0.000000 0
7.750000 0.000000 0
7.875000 0.000000 0
8.000000 0.000000 0
8.125000 0.000000 0
8.250000 0.000000 0
8.375000 0.000000 0
8.500000 0.000000 0
8.625000 0.000000 0
8.750000 0.000000 0
8.875000 0.000000 0
9.000000 0.000000 0
9.125000 0.000000 0
9.250000 0.000000 0
9.375000 0.000000 0
9.500000 0.000000 0
9.625000 0.000000 0
9.750000 0.000000 0
9.875000 0.000000 0
10.000000 0.000000 0
0.000000 0.080000 0
0.125000 0.080000 0
0.250000 0.080000 0
0.375000 0.080000 0
0.500000 0.080000 0
0.625000 0.080000 0
0.750000 0.080000 0
0.875000 0.080000 0
1.000000 0.080000 0
1.125000 0.080000 0
1.250000 0.080000 0
1.375000 0.080000 0
1.500000 0.080000 0
1.625000 0.080000 0
1.750000 0.080000 0
1.875000 0.080000 0
2.000000 0.080000 0
2.125000 0.080000 0
2.250000 0.080000 0
2.375000 0.080000 0
2.500000 0.080000 0
2.625000 0.080000 0
2.750000 0.080000 0
2.875000 0.080000 0
3.000000 0.080000 0
3.125000 0.080000 0
3.250000 0.080000 0
3.375000 0.080000 0
3.500000 0.080000 0
3.625000 0.080000 0
3.750000 0.080000 0
3.875000 0.080000 0
4.000000 0.080000 0
4.125000 0.080000 0
4.250000 0.080000 0
4.375000 0.080000 0
4.500000 0.080000 0
4.625000 0.080000 0
4.750000 0.080000 0
4.875000 0.080000 0
5.000000 0.080000 0
5.125000 0.080000 0
5.250000 0.080000 0
5.375000 0.080000 0
5.500000 0.080000 0
5.625000 0.080000 0
5.750000 0.080000 0
5.875000 0.080000 0
6.000000 0.080000 0
6.125000 0.080000 0
6.250000 0.080000 0
6.375000 0.080000 0
6.500000 0.080000 0
6.625000 0.080000 0
6.750000 0.080000 0
6.875000 0.080000 0
7.000000 0.080000 0
7.125000 0.080000 0
7.250000 0.080000 0
7.375000 0.080000 0
7.500000 0.080000 0
7.625000 0.080000 0
7.750000 0.080000 0
7.875000 0.080000 0
8.000000 0.080000 0
8.125000 0.080000 0
8.250000 0.080000 0
8.375000 0.080000 0
8.500000 0.080000 0
8.625000 0.080000 0
8.750000 0.080000 0
8.875000 0.080000 0
9.000000 0.080000 0
9.125000 0.080000 0
9.250000 0.080000 0
9.375000 0.080000 0
9.500000 0.080000 0
9.625000 0.080000 0
9.750000 0.080000 0
9.875000 0.080000 0
10.000000 0.080000 0
0.000000 0.160000 0
0.125000 0.160000 0
0.250000 0.160000 0
0.375000 0.160000 0
0.500000 0.160000 0
0.625000 0.160000 0
0.750000 0.160000 0
0.875000 0.160000 0
1.000000 0.160000 0
1.125000 0.160000 0
1.250000 0.160000 0
1.375000 0.160000 0
1.500000 0.160000 0
1.625000 0.160000 0
1.750000 0.160000 0
1.875000 0.160000 0
2.000000 0.160000 0
2.125000 0.160000 0
2.250000 0.160000 0
2.375000 0.160000 0
2.500000 0.160000 0
2.625000 0.160000 0
2.750000 0.160000 0
2.875000 0.160000 0
3.000000 0.160000 0
3.125000 0.160000 0
3.250000 0.160000 0
3.375000 0.160000 0
3.500000 0.160000 0
3.625000 0.160000 0
3.750000 0.160000 0
3.875000 0.160000 0
4.000000 0.160000 0
4.125000 0.160000 0
4.250000 0.160000 0
4.375000 0.160000 0
4.500000 0.160000 0
4.625000 0.160000 0
4.750000 0.160000 0
4.875000 0.160000 0
5.000000 0.160000 0
5.125000 0.160000 0
5.250000 0.160000 0
5.375000 0.160000 0
5.500000 0.160000 0
5.625000 0.160000 0
5.750000 0.160000 0
5.875000 0.160000 0
6.000000 0.160000 0
6.125000 0.160000 0
6.250000 0.160000 0
6.375000 0.160000 0
6.500000 0.160000 0
6.625000 0.160000 0
6.750000 0.160000 0
6.875000 0.160000 0
7.000000 0.160000 0
7.125000 0.160000 0
7.250000 0.160000 0
7.375000 0.160000 0
7.500000 0.160000 0
7.625000 0.160000 0
7.750000 0.160000 0
7.875000 0.160000 0
8.000000 0.160000 0
8.125000 0.160000 0
8.250000 0.160000 0
8.375000 0.160000 0
8.500000 0.160000 0
8.625000 0.160000 0
8.750000 0.160000 0
8.875000 0.160000 0
9.000000 0.160000 0
9.125000 0.160000 0
9.250000 0.160000 0
9.375000 0.160000 0
9.500000 0.160000 0
9.625000 0.160000 0
9.750000 0.160000 0
9.875000 0.160000 0
10.000000 0.160000 0
0.000000 0.240000 0
0.125000 0.240000 0
0.250000 0.240000 0
0.375000 0.240000 0
0.500000 0.240000 0
0.625000 0.240000 0
0.750000 0.240000 0
0.875000 0.240000 0
1.000000 0.240000 0
1.125000 0.240000 0
1.250000 0.240000 0
1.375000 0.240000 0
1.500000 0.240000 0
1.625000 0.240000 0
1.750000 0.240000 0
1.875000 0.240000 0
2.000000 0.240000 0
2.125000 0.240000 0
2.250000 0.240000 0
2.375000 0.240000 0
2.500000 0.240000 0
2.625000 0.240000 0
2.750000 0.240000 0
2.875000 0.240000 0
3.000000 0.240000 0
3.125000 0.240000 0
3.250000 0.240000 0
3.375000 0.240000 0
3.500000 0.240000 0
3.625000 0.240000 0
3.750000 0.240000 0
3.875000 0.240000 0
4.000000 0.240000 0
4.125000 0.240000 0
4.250000 0.240000 0
4.375000 0.240000 0
4.500000 0.240000 0
4.625000 0.240000 0
4.750000 0.240000 0
4.875000 0.240000 0
5.000000 0.240000 0
5.125000 0.240000 0
5.250000 0.240000 0
5.375000 0.240000 0
5.500000 0.240000 0
5.625000 0.240000 0
5.750000 0.240000 0
5.875000 0.240000 0
6.000000 0.240000 0
6.125000 0.240000 0
6.250000 0.240000 0
6.375000 0.240000 0
6.500000 0.240000 0
6.625000 0.240000 0
6.750000 0.240000 0
6.875000 0.240000 0
7.000000 0.240000 0
7.125000 0.240000 0
7.250000 0.240000 0
7.375000 0.240000 0
7.500000 0.240000 0
7.625000 0.240000 0
7.750000 0.240000 0
7.875000 0.240000 0
8.000000 0.240000 0
8.125000 0.240000 0
8.250000 0.240000 0
8.375000 0.240000 0
8.500000 0.240000 0
8.625000 0.240000 0
8.750000 0.240000 0
8.875000 0.240000 0
9.000000 0.240000 0
9.125000 0.240000 0
9.250000 0.240000 0
9.375000 0.240000 0
9.500000 0.240000 0
9.625000 0.240000 0
9.750000 0.240000 0
9.875000 0.240000 0
10.000000 0.240000 0
0.000000 0.320000 0
0.125000 0.320000 0
0.250000 0.320000 0
0.375000 0.320000 0
0.500000 0.320000 0
0.625000 0.320000 0
0.750000 0.320000 0
0.875000 0.320000 0
1.000000 0.320000 0
1.125000 0.320000 0
1.250000 0.320000 0
1.375000 0.320000 0
1.500000 0.320000 0
1.625000 0.320000 0
1.750000 0.320000 0
1.875000 0.320000 0
2.000000 0.320000 0
2.125000 0.320000 0
2.250000 0.320000 0
2.375000 0.320000 0
2.500000 0.320000 0
2.625000 0.320000 0
2.750000 0.320000 0
2.875000 0.320000 0
3.000000 0.320000 0
3.125000 0.320000 0
3.250000 0.320000 0
3.375000 0.320000 0
3.500000 0.320000 0
3.625000 0.320000 0
3.750000 0.320000 0
3.875000 0.320000 0
4.000000 0.320000 0
4.125000 0.320000 0
4.250000 0.320000 0
4.375000 0.320000 0
4.500000 0.320000 0
4.625000 0.320000 0
4.750000 0.320000 0
4.875000 0.320000 0
5.000000 0.320000 0
5.125000 0.320000 0
5.250000 0.320000 0
5.375000 0.320000 0
5.500000 0.320000 0
5.625000 0.320000 0
5.750000 0.320000 0
5.875000 0.320000 0
6.000000 0.320000 0
6.125000 0.320000 0
6.250000 0.320000 0
6.375000 0.320000 0
6.500000 0.320000 0
6.625000 0.320000 0
6.750000 0.320000 0
6.875000 0.320000 0
7.000000 0.320000 0
7.125000 0.320000 0
7.250000 0.320000 0
7.375000 0.320000 0
7.500000 0.320000 0
7.625000 0.320000 0
7.750000 0.320000 0
7.875000 0.320000 0
8.000000 0.320000 0
8.125000 0.320000 0
8.250000 0.320000 0
8.375000 0.320000 0
8.500000 0.320000 0
8.625000 0.320000 0
8.750000 0.320000 0
8.875000 0.320000 0
9.000000 0.320000 0
9.125000 0.320000 0
9.250000 0.320000 0
9.375000 0.320000 0
9.500000 0.320000 0
9.625000 0.320000 0
9.750000 0.320000 0
9.875000 0.320000 0
10.000000 0.320000 0
0.000000 0.400000 0
0.125000 0.400000 0
0.250000 0.400000 0
0.375000 0.400000 0
0.500000 0.400000 0
0.625000 0.400000 0
0.750000 0.400000 0
0.875000 0.400000 0
1.000000 0.400000 0
1.125000 0.400000 0
1.250000 0.400000 0
1.375000 0.400000 0
1.500000 0.400000 0
1.625000 0.400000 0
1.750000 0.400000 0
1.875000 0.400000 0
2.000000 0.400000 0
2.125000 0.400000 0
2.250000 0.400000 0
2.375000 0.400000 0
2.500000 0.400000 0
2.625000 0.400000 0
2.750000 0.400000 0
2.875000 0.400000 0
3.000000 0.400000 0
3.125000 0.400000 0
3.250000 0.400000 0
3.375000 0.400000 0
3.500000 0.400000 0
3.625000 0.400000 0
3.750000 0.400000 0
3.875000 0.400000 0
4.000000 0.400000 0
4.125000 0.400000 0
4.250000 0.400000 0
4.375000 0.400000 0
4.500000 0.400000 0
4.625000 0.400000 0
4.750000 0.400000 0
4.875000 0.400000 0
5.000000 0.400000 0
5.125000 0.400000 0
5.250000 0.400000 0
5.375000 0.400000 0
5.500000 0.400000 0
5.625000 0.400000 0
5.750000 0.400000 0
5.875000 0.400000 0
6.000000 0.400000 0
6.125000 0.400000 0
6.250000 0.400000 0
6.375000 0.400000 0
6.500000 0.400000 0
6.625000 0.400000 0
6.750000 0.400000 0
6.875000 0.400000 0
7.000000 0.400000 0
7.125000 0.400000 0
7.250000 0.400000 0
7.375000 0.400000 0
7.500000 0.400000 0
7.625000 0.400000 0
7.750000 0.400000 0
7.875000 0.400000 0
8.000000 0.400000 0
8.125000 0.400000 0
8.250000 0.400000 0
8.375000 0.400000 0
8.500000 0.400000 0
8.625000 0.400000 0
8.750000 0.400000 0
8.875000 0.400000 0
9.000000 0.400000 0
9.125000 0.400000 0
9.250000 0.400000 0
9.375000 0.400000 0
9.500000 0.400000 0
9.625000 0.400000 0
9.750000 0.400000 0
9.875000 0.400000 0
10.000000 0.400000 0
0.000000 0.480000 0
0.125000 0.480000 0
0.250000 0.480000 0
0.375000 0.480000 0
0.500000 0.480000 0
[...]
POINT_DATA 2106 

VECTORS velocity float
0.500000 0.000000 0
-0.000003 0.000000 0
-0.000005 0.000000 0
-0.000006 0.000000 0
-0.000007 0.000000 0
-0.000008 0.000000 0
-0.000009 0.000000 0
-0.000009 0.000000 0
-0.000007 0.000000 0
-0.000005 0.000000 0
-0.000001 0.000000 0
0.000004 0.000000 0
0.000016 0.000000 0
0.000027 0.000000 0
-0.000002 0.000000 0
-0.000238 0.000000 0
-0.000575 0.000000 0
-0.000010 0.000000 0
0.000185 0.000000 0
-0.000099 0.000000 0
-0.000209 0.000000 0
-0.000086 0.000000 0
0.000020 0.000000 0
0.000004 0.000000 0
-0.000085 0.000000 0
-0.000183 0.000000 0
-0.000251 0.000000 0
-0.000272 0.000000 0
-0.000241 0.000000 0
-0.000179 0.000000 0
-0.000099 0.000000 0
-0.000002 0.000000 0
0.000192 0.000000 0
0.001217 0.000000 0
0.000409 0.000000 0
0.000000 0.000000 0
0.000000 0.000000 0
0.000000 0.000000 0
0.000000 0.000000 0
0.000000 0.000000 0
-0.000433 0.000000 0
0.001040 0.000000 0
0.000420 0.000000 0
0.000353 0.000000 0
0.000427 0.000000 0
0.000408 0.000000 0
0.000184 0.000000 0
-0.000065 0.000000 0
-0.000239 0.000000 0
-0.000304 0.000000 0
-0.000385 0.000000 0
-0.000475 0.000000 0
-0.000497 0.000000 0
-0.000275 0.000000 0
0.000332 0.000000 0
-0.000809 0.000000 0
-0.000253 0.000000 0
-0.000095 0.000000 0
0.000021 0.000000 0
0.000137 0.000000 0
0.000209 0.000000 0
0.000235 0.000000 0
0.000233 0.000000 0
0.000208 0.000000 0
0.000161 0.000000 0
0.000097 0.000000 0
0.000027 0.000000 0
-0.000036 0.000000 0
-0.000076 0.000000 0
-0.000082 0.000000 0
-0.000049 0.000000 0
0.000017 0.000000 0
0.000106 0.000000 0
0.000202 0.000000 0
0.000292 0.000000 0
0.000353 0.000000 0
0.000359 0.000000 0
0.000295 0.000000 0
0.000175 0.000000 0
0.000041 0.000000 0
0.000000 0.000000 0
1.000000 -0.001827 0
1.007197 -0.006240 0
1.022589 -0.011908 0
1.047484 -0.018662 0
1.083615 -0.026801 0
1.133380 -0.036788 0
1.200010 -0.049441 0
1.288331 -0.064636 0
1.401880 -0.086761 0
1.556931 -0.117907 0
1.767290 -0.169534 0
2.076048 -0.237545 0
2.496027 -0.335994 0
3.110533 -0.452185 0
3.925972 -0.660505 0
5.272226 -0.702594 0
6.159017 -0.470822 0
6.662173 -0.290149 0
6.976563 -0.201563 0
7.231255 -0.169817 0
7.480055 -0.147558 0
7.682173 -0.113513 0
7.824901 -0.077595 0
7.914621 -0.045556 0
7.962118 -0.017541 0
7.973360 0.009881 0
7.943720 0.046763 0
7.852605 0.105487 0
7.658041 0.191718 0
7.303038 0.321950 0
6.733999 0.477018 0
5.882974 0.636285 0
4.744691 0.838968 0
3.333599 1.000643 0
1.697599 1.023638 0
0.000000 0.000260 0
0.000000 -0.501341 0
0.000000 0.000000 0
0.000000 -0.841850 0
0.000000 0.000279 0
-2.081108 1.261328 0
-3.174479 0.596984 0
-3.608669 0.267286 0
-3.876590 0.131937 0
-3.976324 0.059911 0
-4.012981 0.025856 0
-4.022805 0.011141 0
-4.017269 -0.000577 0
-3.991037 -0.015214 0
-3.931302 -0.036213 0
-3.831601 -0.064318 0
-3.682383 -0.109952 0
-3.442000 -0.218646 0
-2.953524 -0.529502 0
-1.769303 -1.312031 0
1.178103 -2.855700 0
6.015720 -2.872640 0
8.485934 -1.363605 0
9.580975 -0.560521 0
9.933795 -0.183715 0
10.008738 -0.048527 0
10.029054 -0.011358 0
10.032914 -0.000517 0
10.031890 0.002692 0
10.029147 0.003630 0
10.025685 0.003548 0
10.022970 0.002867 0
10.021352 0.001990 0
10.020990 0.001098 0
10.021876 0.000381 0
10.023714 0.000119 0
10.025651 0.000629 0
10.026239 0.001955 0
10.024164 0.003571 0
10.019625 0.004709 0
10.013978 0.005000 0
10.008618 0.004592 0
10.004216 0.003764 0
10.001113 0.002615 0
9.999902 0.001014 0
9.999736 0.000039 0
1.000000 -0.004593 0
1.008260 -0.014435 0
1.024732 -0.025766 0
1.050398 -0.039039 0
1.086783 -0.054956 0
1.136083 -0.074476 0
1.201426 -0.099151 0
1.287042 -0.129180 0
1.398741 -0.171887 0
1.545209 -0.233845 0
1.751365 -0.332218 0
2.030888 -0.466375 0
2.436481 -0.662053 0
3.017610 -0.915147 0
3.861931 -1.383466 0
5.366564 -1.429131 0
6.026450 -0.889549 0
6.368526 -0.523212 0
6.556161 -0.364195 0
6.731767 -0.322218 0
6.957213 -0.288570 0
7.138601 -0.220684 0
7.259738 -0.148750 0
7.331950 -0.087801 0
7.372512 -0.037575 0
7.389614 0.011792 0
7.382271 0.077300 0
7.341074 0.182852 0
7.234936 0.351740 0
6.990271 0.591404 0
6.519354 0.908859 0
5.773966 1.273175 0
4.699910 1.631617 0
3.403686 1.950156 0
1.814751 2.133521 0
0.000000 -0.000072 0
0.000000 -1.086544 0
0.000000 0.000000 0
0.000000 -1.333466 0
0.000000 -0.001543 0
-1.254055 2.031689 0
-1.903954 0.977657 0
-2.366388 0.449369 0
-2.546087 0.235317 0
-2.616377 0.087308 0
-2.636807 0.029765 0
-2.644380 0.002762 0
-2.640695 -0.020314 0
-2.610239 -0.055001 0
-2.534056 -0.102021 0
-2.394824 -0.159290 0
-2.171075 -0.249327 0
-1.896742 -0.466452 0
-1.438223 -1.070508 0
0.020591 -2.644223 0
2.450434 -4.982397 0
5.784059 -4.676994 0
7.129640 -2.281746 0
7.701727 -0.926613 0
7.750295 -0.273750 0
7.682579 -0.060948 0
7.676058 -0.015455 0
7.674951 -0.001797 0
7.675477 0.002428 0
7.675950 0.003989 0
7.674975 0.003971 0
7.674762 0.002791 0
7.675178 0.001285 0
7.676461 -0.000318 0
7.678840 -0.001726 0
7.682462 -0.002398 0
7.686908 -0.001598 0
7.690777 0.000969 0
7.691926 0.004251 0
7.690283 0.006537 0
7.687267 0.007062 0
7.684281 0.006266 0
7.681439 0.004821 0
7.678450 0.002779 0
7.675996 0.000899 0
7.675043 0.000181 0
1.000000 -0.007106 0
1.007430 -0.022058 0
1.022763 -0.038871 0
1.046876 -0.058369 0
1.081072 -0.081633 0
1.127299 -0.110154 0
1.188505 -0.146049 0
1.268207 -0.190912 0
1.375865 -0.251983 0
1.508687 -0.343580 0
1.696305 -0.480363 0
1.946644 -0.676014 0
2.298666 -0.967491 0
2.814925 -1.364467 0
3.631300 -2.163830 0
5.223827 -2.087881 0
5.379995 -1.112072 0
5.375428 -0.629158 0
5.344053 -0.434031 0
5.323141 -0.426485 0
5.514713 -0.407927 0
5.661696 -0.307124 0
5.748610 -0.201332 0
5.794029 -0.117726 0
5.820266 -0.054440 0
5.839715 0.003640 0
5.859005 0.077835 0
5.881701 0.199787 0
5.913740 0.416239 0
5.887415 0.779929 0
5.651701 1.255458 0
5.117477 1.800734 0
4.299172 2.355953 0
3.135495 2.847151 0
1.710679 3.202002 0
0.000000 -0.000068 0
0.000000 -1.663112 0
0.000000 0.000000 0
0.000000 -1.645966 0
0.000000 -0.001233 0
-0.781392 2.479870 0
-1.134566 1.308882 0
-1.520419 0.678257 0
-1.657078 0.291936 0
-1.688503 0.117977 0
-1.734922 0.043784 0
-1.812849 0.013636 0
-1.887663 -0.022422 0
-1.913969 -0.083457 0
-1.866356 -0.174072 0
-1.712547 -0.296620 0
-1.436469 -0.428719 0
-1.022358 -0.687665 0
-0.604157 -1.756590 0
0.808379 -3.800766 0
2.499105 -6.544313 0
5.138240 -5.867326 0
4.867539 -2.590907 0
4.752303 -0.957734 0
4.403252 -0.171454 0
3.885655 -0.001010 0
3.869320 -0.006470 0
3.858448 -0.000139 0
3.854520 0.002058 0
3.855766 0.003957 0
3.846838 0.004314 0
3.844380 0.002743 0
3.845908 0.000908 0
3.852633 -0.001240 0
3.864130 -0.003454 0
3.879935 -0.005038 0
3.897501 -0.004687 0
3.913585 -0.001251 0
3.919417 0.003893 0
3.914776 0.007697 0
3.904556 0.008847 0
3.895784 0.008328 0
3.891244 0.007501 0
3.888216 0.006105 0
3.895639 0.003201 0
3.894837 0.001239 0
1.000000 -0.009341 0
1.006403 -0.028993 0
1.020290 -0.051006 0
1.042420 -0.076351 0
1.073790 -0.106421 0
1.116031 -0.143228 0
1.171629 -0.189327 0
1.243946 -0.249084 0
1.340487 -0.325788 0
1.459923 -0.438921 0
1.620378 -0.612504 0
1.826057 -0.851880 0
2.094272 -1.217748 0
2.475319 -1.768028 0
3.104286 -2.925157 0
4.375185 -2.548290 0
3.649486 -0.986568 0
3.030798 -0.500203 0
2.666436 -0.330726 0
2.292793 -0.431435 0
3.065779 -0.505239 0
3.416273 -0.370372 0
3.557607 -0.233438 0
3.620186 -0.133655 0
3.656386 -0.066808 0
3.685514 -0.012996 0
3.718442 0.050435 0
3.763093 0.147828 0
3.849324 0.348089 0
4.007714 0.759114 0
4.173606 1.401625 0
4.021639 2.138799 0
3.530037 2.900092 0
2.641817 3.606797 0
1.480397 4.140243 0
0.000000 -0.000015 0
0.000000 -2.181324 0
0.000000 0.000000 0
0.000000 -1.832636 0
0.000000 -0.000615 0
-0.462840 2.757822 0
-0.681175 1.450640 0
-0.757605 0.783782 0
-0.895684 0.342897 0
-0.976132 0.137134 0
-1.119714 0.109353 0
-1.260153 0.100523 0
-1.418991 0.044409 0
-1.512089 -0.068632 0
-1.480379 -0.230925 0
-1.317189 -0.434412 0
-1.048221 -0.691042 0
-0.582800 -0.999126 0
-0.043354 -2.242174 0
0.890427 -4.630305 0
2.136716 -7.753502 0
3.868339 -6.192786 0
1.632936 -2.034740 0
0.411700 -0.629464 0
0.136486 0.280911 0
0.177296 0.280775 0
0.819470 0.001963 0
0.349192 0.007681 0
0.812945 0.004151 0
0.514486 0.008911 0
0.750987 0.011264 0
0.726024 0.003392 0
0.740649 -0.003991 0
0.759965 -0.011974 0
0.786511 -0.019193 0
0.827059 -0.023750 0
0.869262 -0.023129 0
0.919580 -0.013051 0
0.935749 0.003495 0
0.908579 0.016054 0
0.901133 0.019224 0
0.928701 0.014791 0
0.933314 0.009670 0
0.949217 -0.000028 0
0.992217 -0.003333 0
0.992493 0.001201 0
1.000000 -0.011196 0
1.004875 -0.035033 0
1.016997 -0.061916 0
1.036744 -0.092603 0
1.064634 -0.128738 0
1.101889 -0.172765 0
1.150412 -0.227909 0
1.213164 -0.298975 0
1.292882 -0.390203 0
1.398967 -0.522705 0
1.527163 -0.714683 0
1.655294 -0.979300 0
1.845018 -1.383013 0
2.052888 -2.010870 0
2.310033 -3.379738 0
2.005012 -2.436803 0
-0.008407 -0.251659 0
0.001464 0.000000 0
0.000348 0.038297 0
0.119065 -0.682058 0
1.503358 -1.126948 0
2.021083 -0.621888 0
2.219033 -0.331830 0
2.301996 -0.180938 0
2.355330 -0.096245 0
2.394150 -0.036070 0
2.426423 0.028190 0
2.447328 0.116029 0
2.458600 0.259687 0
2.544359 0.572394 0
2.796712 1.246552 0
2.920457 2.212624 0
2.690084 3.239045 0
2.108687 4.158926 0
1.196777 4.892771 0
0.000000 -0.000003 0
0.000000 -2.610504 0
0.000000 0.000000 0
0.000000 -1.941245 0
0.000000 -0.000287 0
-0.271251 2.915832 0
-0.376486 1.497538 0
-0.365859 0.815548 0
-0.487246 0.431799 0
-0.673688 0.261363 0
-0.882660 0.225564 0
-1.085834 0.205179 0
-1.254862 0.138823 0
-1.341204 -0.044163 0
-1.270638 -0.298802 0
-1.087642 -0.573195 0
-0.769429 -0.898722 0
-0.461722 -1.330774 0
0.121439 -2.699449 0
0.749309 -5.196005 0
1.479290 -8.450171 0
1.764475 -5.544900 0
-0.000227 -0.378652 0
-0.000302 0.000000 0
-0.000237 -0.021429 0
-0.593085 -0.438114 0
-0.409205 -0.116477 0
-0.083435 0.004043 0
-0.194914 -0.103724 0
-0.096096 0.043616 0
-0.002007 -0.131064 0
-0.000620 0.009366 0
0.023551 -0.020809 0
0.041590 -0.030586 0
0.062267 -0.046388 0
0.096429 -0.057993 0
0.151084 -0.063895 0
0.209581 -0.043797 0
0.232604 0.010940 0
0.200250 0.029857 0
0.199314 -0.004025 0
0.195540 -0.012263 0
0.254277 -0.005623 0
0.289440 -0.031587 0
0.263748 -0.024490 0
0.263917 0.000891 0
1.000000 -0.012453 0
1.002259 -0.039861 0
1.012479 -0.071396 0
1.029700 -0.106833 0
1.053702 -0.148109 0
1.085259 -0.198120 0
1.125732 -0.260537 0
1.176902 -0.340259 0
1.240464 -0.444697 0
1.322760 -0.588856 0
1.409318 -0.776547 0
1.498282 -1.055301 0
1.597322 -1.472203 0
1.633306 -2.065631 0
1.452475 -2.894511 0
0.161061 0.000247 0
-1.202634 1.685839 0
-0.694195 0.000000 0
-0.412317 1.152099 0
0.000000 0.000016 0
1.105842 -1.706836 0
1.387386 -0.828398 0
1.527777 -0.413217 0
1.593159 -0.220879 0
1.665758 -0.125781 0
1.731937 -0.058490 0
1.804070 0.016407 0
1.853355 0.127240 0
1.854584 0.285994 0
1.811845 0.542729 0
1.918990 1.160928 0
2.079979 2.207047 0
2.016408 3.419631 0
1.638405 4.562519 0
0.937851 5.489808 0
0.000000 -0.000027 0
0.000000 -2.947277 0
0.000000 0.000000 0
0.000000 -2.005696 0
0.000000 -0.000066 0
-0.155018 2.998784 0
-0.192455 1.511195 0
-0.142209 0.854675 0
-0.321912 0.539913 0
-0.537524 0.390205 0
-0.766649 0.373132 0
-1.011490 0.338738 0
-1.128224 0.207851 0
-1.162522 -0.058530 0
-1.021160 -0.393199 0
-0.802111 -0.755180 0
-0.567805 -1.091625 0
-0.289788 -1.569276 0
0.148207 -3.017228 0
0.524107 -5.499323 0
0.845380 -8.403202 0
0.242337 -0.000123 0
0.085483 4.967501 0
1.065193 0.000000 0
1.069007 0.128947 0
0.000000 -0.000045 0
-0.303941 -0.332982 0
-0.140621 -0.129459 0
-0.065774 0.012260 0
-0.000562 -0.114543 0
-0.087674 -0.049835 0
-0.049623 -0.012959 0
-0.042292 -0.030999 0
-0.043818 -0.036746 0
-0.048938 -0.054284 0
-0.049249 -0.080587 0
-0.019948 -0.095540 0
0.018762 -0.065218 0
0.018339 0.009473 0
-0.052132 0.037366 0
-0.159350 0.022244 0
-0.252175 -0.020379 0
-0.265804 -0.050420 0
-0.300975 -0.006084 0
-0.311301 0.013008 0
-0.311845 0.001004 0
1.000000 -0.012635 0
1.000470 -0.043009 0
1.008812 -0.079473 0
1.022702 -0.118981 0
1.042158 -0.164291 0
1.067344 -0.218859 0
1.098951 -0.286555 0
1.137711 -0.372398 0
1.184145 -0.483546 0
1.237915 -0.630766 0
1.293492 -0.827012 0
1.351906 -1.099617 0
1.365934 -1.469422 0
1.257998 -1.918162 0
0.889996 -2.437496 0
0.000000 0.000216 0
0.000000 1.358853 0
0.000000 0.000000 0
0.000000 1.412251 0
0.000000 -0.000149 0
0.634680 -1.999178 0
0.805952 -0.891921 0
0.932881 -0.463519 0
1.039608 -0.269241 0
1.128574 -0.185057 0
1.210374 -0.124584 0
1.317523 -0.049512 0
1.386450 0.083706 0
1.404906 0.286258 0
1.364317 0.531179 0
1.361499 1.074952 0
1.490495 2.150283 0
1.485085 3.521659 0
1.238623 4.849208 0
0.711029 5.941356 0
0.000000 -0.000064 0
0.000000 -3.210793 0
0.000000 0.000000 0
0.000000 -2.040140 0
0.000000 0.000037 0
-0.084836 3.039014 0
-0.095486 1.489346 0
-0.092537 0.898407 0
-0.262638 0.684806 0
-0.447402 0.546000 0
-0.677911 0.528908 0
-0.845766 0.436592 0
-0.953963 0.235489 0
-0.888214 -0.112678 0
-0.770314 -0.529460 0
-0.628161 -0.863336 0
-0.446765 -1.226603 0
-0.188443 -1.789016 0
0.113762 -3.220336 0
0.343787 -5.642190 0
0.446966 -8.269833 0
0.000000 0.000095 0
0.000000 4.780393 0
0.000000 0.000000 0
0.000000 0.230993 0
0.000000 0.000061 0
-0.104750 -0.035246 0
-0.025911 -0.148379 0
-0.161434 -0.193356 0
-0.049856 0.057638 0
-0.179391 -0.099659 0
-0.136061 -0.019672 0
-0.154437 -0.024518 0
-0.170291 -0.026326 0
-0.203133 -0.042906 0
-0.259942 -0.076541 0
-0.366338 -0.107416 0
-0.509857 -0.068294 0
-0.616996 0.056317 0
-0.682275 0.143583 0
-0.797695 0.124009 0
-0.856427 0.055874 0
-0.917183 0.025615 0
-0.993914 -0.002463 0
-0.933859 -0.017527 0
-0.934309 0.001599 0
1.000000 -0.012746 0
0.999494 -0.045490 0
1.004875 -0.085619 0
1.015542 -0.128168 0
1.030048 -0.176673 0
1.048426 -0.234461 0
1.070862 -0.305566 0
1.097324 -0.394778 0
1.126910 -0.508822 0
1.158699 -0.658832 0
1.189937 -0.849495 0
1.196534 -1.101658 0
1.163181 -1.412096 0
0.997867 -1.761026 0
0.650108 -2.089387 0
0.000000 0.000196 0
0.000000 1.116188 0
0.000000 0.000000 0
0.000000 1.557983 0
0.000000 -0.000288 0
0.370978 -2.222635 0
0.602498 -1.019241 0
0.717368 -0.562751 0
0.799815 -0.346117 0
0.900931 -0.235066 0
1.042568 -0.179411 0
1.171184 -0.096276 0
1.221810 0.071321 0
1.208602 0.300165 0
1.132707 0.570515 0
1.051402 1.080180 0
1.096358 2.127957 0
1.095511 3.580834 0
0.925066 5.057921 0
0.524199 6.282533 0
0.000000 -0.000087 0
0.000000 -3.402398 0
0.000000 0.000000 0
0.000000 -2.059841 0
0.000000 0.000092 0
-0.047095 3.059906 0
-0.047662 1.516130 0
-0.118541 0.961658 0
-0.220942 0.767033 0
-0.362672 0.655985 0
-0.525752 0.628091 0
-0.636904 0.515417 0
-0.708423 0.235024 0
-0.665077 -0.176060 0
-0.635269 -0.559627 0
-0.446080 -0.962245 0
-0.269617 -1.373039 0
-0.115230 -1.928007 0
0.081943 -3.357849 0
0.227504 -5.712568 0
0.243311 -8.183173 0
0.000000 0.000300 0
0.000000 4.681863 0
0.000000 0.000000 0
0.000000 0.061883 0
0.000000 -0.000061 0
0.030991 -0.316388 0
-0.039673 -0.093175 0
-0.166755 0.027591 0
-0.062238 -0.103046 0
-0.136091 0.005342 0
-0.150431 -0.028923 0
-0.144836 -0.009086 0
-0.157572 -0.005574 0
-0.197875 0.003098 0
-0.301945 0.023870 0
-0.465777 0.064412 0
-0.651484 0.095209 0
-0.768464 0.119826 0
-0.769871 0.153019 0
-0.715024 0.133707 0
-0.674304 0.056099 0
-0.518305 0.037578 0
-0.468183 0.004594 0
-0.536987 -0.025134 0
-0.537046 0.001590 0
1.000000 -0.012303 0
0.999088 -0.046118 0
1.000562 -0.089737 0
1.008240 -0.135086 0
1.017275 -0.185331 0
1.028884 -0.244974 0
1.042679 -0.317844 0
1.058034 -0.408263 0
1.073275 -0.522820 0
1.087366 -0.671097 0
1.093392 -0.851220 0
1.072077 -1.082487 0
0.999924 -1.342270 0
0.816697 -1.589790 0
0.480717 -1.798855 0
0.000000 0.000108 0
0.000000 0.942674 0
0.000000 0.000000 0
0.000000 1.649425 0
0.000000 -0.000394 0
0.233400 -2.384766 0
0.406677 -1.113605 0
0.449479 -0.589797 0
0.501861 -0.386715 0
0.643622 -0.340413 0
0.838748 -0.297540 0
0.959147 -0.164221 0
1.070147 0.059764 0
1.063252 0.343290 0
0.972745 0.631793 0
0.845050 1.098222 0
0.830066 2.122058 0
0.822775 3.631291 0
0.681329 5.214854 0
0.392963 6.533404 0
0.000000 -0.000084 0
0.000000 -3.546303 0
0.000000 0.000000 0
0.000000 -2.070192 0
0.000000 0.000135 0
-0.021577 3.069528 0
-0.015961 1.535077 0
-0.067140 1.009312 0
-0.123245 0.841056 0
-0.269327 0.741084 0
-0.329442 0.704422 0
-0.429321 0.553508 0
-0.415635 0.253526 0
-0.466097 -0.159491 0
-0.402056 -0.669611 0
-0.241211 -1.097348 0
-0.126401 -1.438341 0
-0.039397 -2.014008 0
0.079725 -3.439680 0
0.164017 -5.745460 0
0.147657 -8.124224 0
0.000000 0.000474 0
0.000000 4.625050 0
0.000000 0.000000 0
0.000000 0.251046 0
0.000000 0.000288 0
-0.022703 -0.009844 0
-0.199055 -0.021815 0
0.006869 -0.178909 0
-0.157926 0.038019 0
-0.092631 -0.043210 0
-0.108897 -0.014070 0
-0.092810 -0.019941 0
-0.090283 0.007625 0
-0.104875 0.049499 0
-0.159717 0.094922 0
-0.216739 0.116295 0
-0.243849 0.125432 0
-0.259955 0.132091 0
-0.229679 0.109388 0
-0.148246 0.062852 0
0.000549 -0.070020 0
-0.161168 -0.106297 0
-0.066025 0.009499 0
0.063847 0.026551 0
0.064015 0.001690 0
1.000000 -0.012155 0
0.999477 -0.045839 0
0.999476 -0.091470 0
1.000985 -0.138860 0
1.005313 -0.189880 0
1.010870 -0.250714 0
1.017336 -0.324216 0
1.023318 -0.414354 0
1.027433 -0.527589 0
1.028460 -0.671701 0
1.006506 -0.839705 0
0.974946 -1.041833 0
0.863247 -1.248647 0
0.662652 -1.428728 0
0.376708 -1.566695 0
0.000000 0.000071 0
0.000000 0.808400 0
0.000000 0.000000 0
0.000000 1.707190 0
0.000000 -0.000449 0
0.146798 -2.482898 0
0.240878 -1.157526 0
0.260796 -0.623663 0
0.361540 -0.470363 0
0.456429 -0.450668 0
0.623624 -0.381342 0
0.802758 -0.244366 0
0.955270 0.004700 0
0.945063 0.362508 0
0.869528 0.710169 0
0.677870 1.171500 0
0.628830 2.142219 0
0.619138 3.676031 0
0.511426 5.333006 0
0.296216 6.718589 0
0.000000 -0.000052 0
0.000000 -3.653862 0
0.000000 0.000000 0
0.000000 -2.073536 0
0.000000 0.000214 0
-0.000922 3.070132 0
0.013198 1.545296 0
-0.015311 1.030326 0
-0.051345 0.896438 0
-0.104539 0.787957 0
-0.136183 0.730493 0
-0.154367 0.570587 0
-0.147647 0.258566 0
-0.168669 -0.184744 0
-0.048359 -0.703548 0
-0.083745 -1.138658 0
0.009374 -1.502194 0
0.034966 -2.059922 0
0.098272 -3.488028 0
0.139865 -5.756038 0
0.105827 -8.078196 0
0.000000 0.000642 0
0.000000 4.587702 0
0.000000 0.000000 0
0.000000 0.047240 0
0.000000 -0.000166 0
0.000598 -0.188982 0
0.099027 -0.112095 0
-0.152859 0.001274 0
-0.034349 -0.039360 0
-0.073771 -0.026031 0
-0.066372 -0.028803 0
-0.103198 -0.020993 0
-0.126018 0.002153 0
-0.128144 0.047542 0
-0.095870 0.095469 0
-0.060349 0.118262 0
-0.042337 0.122873 0
-0.021000 0.110763 0
-0.005711 0.081531 0
0.007899 -0.013633 0
0.093459 0.064375 0
-0.183435 0.080192 0
-0.227657 -0.139409 0
-0.088929 -0.108353 0
-0.087935 0.001392 0
1.000000 -0.011961 0
0.999443 -0.045773 0
0.998746 -0.090697 0
0.996410 -0.138816 0
0.996758 -0.191652 0
0.997288 -0.252662 0
0.998262 -0.325805 0
0.995548 -0.414719 0
0.992836 -0.526105 0
0.973675 -0.657698 0
0.936095 -0.816966 0
0.863702 -0.990796 0
0.748918 -1.142395 0
0.553314 -1.278399 0
0.305982 -1.374752 0
0.000000 0.000039 0
0.000000 0.701509 0
0.000000 0.000000 0
0.000000 1.743300 0
0.000000 -0.000462 0
0.090955 -2.538917 0
0.134434 -1.186558 0
0.134395 -0.667015 0
0.229327 -0.511914 0
0.323517 -0.508141 0
0.418045 -0.519185 0
0.630606 -0.376469 0
0.749154 -0.031305 0
0.764876 0.398171 0
0.647675 0.802802 0
0.513717 1.252274 0
0.471822 2.159653 0
0.469192 3.706435 0
0.394928 5.421529 0
0.228643 6.860722 0
0.000000 0.000005 0
0.000000 -3.735795 0
0.000000 0.000000 0
0.000000 -2.070584 0
0.000000 0.000340 0
0.019043 3.061092 0
0.045730 1.544292 0
0.044575 1.050626 0
0.036178 0.898168 0
0.043195 0.795386 0
0.018882 0.736318 0
0.104847 0.560851 0
0.121572 0.262686 0
0.150103 -0.223030 0
0.163377 -0.723957 0
0.143199 -1.134291 0
0.147124 -1.514311 0
0.119752 -2.070896 0
0.134390 -3.506810 0
0.144012 -5.750289 0
0.094322 -8.034704 0
0.000000 0.000802 0
0.000000 4.557646 0
0.000000 0.000000 0
0.000000 0.250923 0
0.000000 -0.000209 0
-0.021351 -0.073211 0
-0.088941 0.076403 0
-0.026129 -0.093542 0
-0.040406 -0.012591 0
-0.032601 -0.022709 0