# vtk DataFile Version 2.0
generated by CFD-lab course output (written by Tobias Neckel) 
ASCII

DATASET STRUCTURED_GRID
DIMENSIONS  81 26 1 
POINTS 2106 float

0.000000 0.000000 0
0.125000 0.000000 0
0.250000 0.000000 0
0.375000 0.000000 0
0.500000 0.000000 0
0.625000 0.000000 0
0.750000 0.000000 0
0.875000 0.000000 0
1.000000 0.000000 0
1.125000 0.000000 0
1.250000 0.000000 0
1.375000 0.000000 0
1.500000 0.000000 0
1.625000 0.000000 0
1.750000 0.000000 0
1.875000 0.000000 0
2.000000 0.000000 0
2.125000 0.000000 0
2.250000 0.000000 0
2.375000 0.000000 0
2.500000 0.000000 0
2.625000 0.000000 0
2.750000 0.000000 0
2.875000 0.000000 0
3.000000 0.000000 0
3.125000 0.000000 0
3.250000 0.000000 0
3.375000 0.000000 0
3.500000 0.000000 0
3.625000 0.000000 0
3.750000 0.000000 0
3.875000 0.000000 0
4.000000 0.000000 0
4.125000 0.000000 0
4.250000 0.000000 0
4.375000 0.000000 0
4.500000 0.000000 0
4.625000 0.000000 0
4.750000 0.000000 0
4.875000 0.000000 0
5.000000 0.000000 0
5.125000 0.000000 0
5.250000 0.000000 0
5.375000 0.000000 0
5.500000 0.000000 0
5.625000 0.000000 0
5.750000 0.000000 0
5.875000 0.000000 0
6.000000 0.000000 0
6.125000 0.000000 0
6.250000 0.000000 0
6.375000 0.000000 0
6.500000 0.000000 0
6.625000 0.000000 0
6.750000 0.000000 0
6.875000 0.000000 0
7.000000 0.000000 0
7.125000 0.000000 0
7.250000 0.000000 0
7.375000 0.000000 0
7.500000 0.000000 0
7.625000 0.000000 0
7.750000 0.000000 0
7.875000 0.000000 0
8.000000 0.000000 0
8.125000 0.000000 0
8.250000 0.000000 0
8.375000 0.000000 0
8.500000 0.000000 0
8.625000 0.000000 0
8.750000 0.000000 0
8.875000 0.000000 0
9.000000 0.000000 0
9.125000 0.000000 0
9.250000 0.000000 0
9.375000 0.000000 0
9.500000 0.000000 0
9.625000 0.000000 0
9.750000 0.000000 0
9.875000 0.000000 0
10.000000 0.000000 0
0.000000 0.080000 0
0.125000 0.080000 0
0.250000 0.080000 0
0.375000 0.080000 0
0.500000 0.080000 0
0.625000 0.080000 0
0.750000 0.080000 0
0.875000 0.080000 0
1.000000 0.080000 0
1.125000 0.080000 0
1.250000 0.080000 0
1.375000 0.080000 0
1.500000 0.080000 0
1.625000 0.080000 0
1.750000 0.080000 0
1.875000 0.080000 0
2.000000 0.080000 0
2.125000 0.080000 0
2.250000 0.080000 0
2.375000 0.080000 0
2.500000 0.080000 0
2.625000 0.080000 0
2.750000 0.080000 0
2.875000 0.080000 0
3.000000 0.080000 0
3.125000 0.080000 0
3.250000 0.080000 0
3.375000 0.080000 0
3.500000 0.080000 0
3.625000 0.080000 0
3.750000 0.080000 0
3.875000 0.080000 0
4.000000 0.080000 0
4.125000 0.080000 0
4.250000 0.080000 0
4.375000 0.080000 0
4.500000 0.080000 0
4.625000 0.080000 0
4.750000 0.080000 0
4.875000 0.080000 0
5.000000 0.080000 0
5.125000 0.080000 0
5.250000 0.080000 0
5.375000 0.080000 0
5.500000 0.080000 0
5.625000 0.080000 0
5.750000 0.080000 0
5.875000 0.080000 0
6.000000 0.080000 0
6.125000 0.080000 0
6.250000 0.080000 0
6.375000 0.080000 0
6.500000 0.080000 0
6.625000 0.080000 0
6.750000 0.080000 0
6.875000 0.080000 0
7.000000 0.080000 0
7.125000 0.080000 0
7.250000 0.080000 0
7.375000 0.080000 0
7.500000 0.080000 0
7.625000 0.080000 0
7.750000 0.080000 0
7.875000 0.080000 0
8.000000 0.080000 0
8.125000 0.080000 0
8.250000 0.080000 0
8.375000 0.080000 0
8.500000 0.080000 0
8.625000 0.080000 0
8.750000 0.080000 0
8.875000 0.080000 0
9.000000 0.080000 0
9.125000 0.080000 0
9.250000 0.080000 0
9.375000 0.080000 0
9.500000 0.080000 0
9.625000 0.080000 0
9.750000 0.080000 0
9.875000 0.080000 0
10.000000 0.080000 0
0.000000 0.160000 0
0.125000 0.160000 0
0.250000 0.160000 0
0.375000 0.160000 0
0.500000 0.160000 0
0.625000 0.160000 0
0.750000 0.160000 0
0.875000 0.160000 0
1.000000 0.160000 0
1.125000 0.160000 0
1.250000 0.160000 0
1.375000 0.160000 0
1.500000 0.160000 0
1.625000 0.160000 0
1.750000 0.160000 0
1.875000 0.160000 0
2.000000 0.160000 0
2.125000 0.160000 0
2.250000 0.160000 0
2.375000 0.160000 0
2.500000 0.160000 0
2.625000 0.160000 0
2.750000 0.160000 0
2.875000 0.160000 0
3.000000 0.160000 0
3.125000 0.160000 0
3.250000 0.160000 0
3.375000 0.160000 0
3.500000 0.160000 0
3.625000 0.160000 0
3.750000 0.160000 0
3.875000 0.160000 0
4.000000 0.160000 0
4.125000 0.160000 0
4.250000 0.160000 0
4.375000 0.160000 0
4.500000 0.160000 0
4.625000 0.160000 0
4.750000 0.160000 0
4.875000 0.160000 0
5.000000 0.160000 0
5.125000 0.160000 0
5.250000 0.160000 0
5.375000 0.160000 0
5.500000 0.160000 0
5.625000 0.160000 0
5.750000 0.160000 0
5.875000 0.160000 0
6.000000 0.160000 0
6.125000 0.160000 0
6.250000 0.160000 0
6.375000 0.160000 0
6.500000 0.160000 0
6.625000 0.160000 0
6.750000 0.160000 0
6.875000 0.160000 0
7.000000 0.160000 0
7.125000 0.160000 0
7.250000 0.160000 0
7.375000 0.160000 0
7.500000 0.160000 0
7.625000 0.160000 0
7.750000 0.160000 0
7.875000 0.160000 0
8.000000 0.160000 0
8.125000 0.160000 0
8.250000 0.160000 0
8.375000 0.160000 0
8.500000 0.160000 0
8.625000 0.160000 0
8.750000 0.160000 0
8.875000 0.160000 0
9.000000 0.160000 0
9.125000 0.160000 0
9.250000 0.160000 0
9.375000 0.160000 0
9.500000 0.160000 0
9.625000 0.160000 0
9.750000 0.160000 0
9.875000 0.160000 0
10.000000 0.160000 0
0.000000 0.240000 0
0.125000 0.240000 0
0.250000 0.240000 0
0.375000 0.240000 0
0.500000 0.240000 0
0.625000 0.240000 0
0.750000 0.240000 0
0.875000 0.240000 0
1.000000 0.240000 0
1.125000 0.240000 0
1.250000 0.240000 0
1.375000 0.240000 0
1.500000 0.240000 0
1.625000 0.240000 0
1.750000 0.240000 0
1.875000 0.240000 0
2.000000 0.240000 0
2.125000 0.240000 0
2.250000 0.240000 0
2.375000 0.240000 0
2.500000 0.240000 0
2.625000 0.240000 0
2.750000 0.240000 0
2.875000 0.240000 0
3.000000 0.240000 0
3.125000 0.240000 0
3.250000 0.240000 0
3.375000 0.240000 0
3.500000 0.240000 0
3.625000 0.240000 0
3.750000 0.240000 0
3.875000 0.240000 0
4.000000 0.240000 0
4.125000 0.240000 0
4.250000 0.240000 0
4.375000 0.240000 0
4.500000 0.240000 0
4.625000 0.240000 0
4.750000 0.240000 0
4.875000 0.240000 0
5.000000 0.240000 0
5.125000 0.240000 0
5.250000 0.240000 0
5.375000 0.240000 0
5.500000 0.240000 0
5.625000 0.240000 0
5.750000 0.240000 0
5.875000 0.240000 0
6.000000 0.240000 0
6.125000 0.240000 0
6.250000 0.240000 0
6.375000 0.240000 0
6.500000 0.240000 0
6.625000 0.240000 0
6.750000 0.240000 0
6.875000 0.240000 0
7.000000 0.240000 0
7.125000 0.240000 0
7.250000 0.240000 0
7.375000 0.240000 0
7.500000 0.240000 0
7.625000 0.240000 0
7.750000 0.240000 0
7.875000 0.240000 0
8.000000 0.240000 0
8.125000 0.240000 0
8.250000 0.240000 0
8.375000 0.240000 0
8.500000 0.240000 0
8.625000 0.240000 0
8.750000 0.240000 0
8.875000 0.240000 0
9.000000 0.240000 0
9.125000 0.240000 0
9.250000 0.240000 0
9.375000 0.240000 0
9.500000 0.240000 0
9.625000 0.240000 0
9.750000 0.240000 0
9.875000 0.240000 0
10.000000 0.240000 0
0.000000 0.320000 0
0.125000 0.320000 0
0.250000 0.320000 0
0.375000 0.320000 0
0.500000 0.320000 0
0.625000 0.320000 0
0.750000 0.320000 0
0.875000 0.320000 0
1.000000 0.320000 0
1.125000 0.320000 0
1.250000 0.320000 0
1.375000 0.320000 0
1.500000 0.320000 0
1.625000 0.320000 0
1.750000 0.320000 0
1.875000 0.320000 0
2.000000 0.320000 0
2.125000 0.320000 0
2.250000 0.320000 0
2.375000 0.320000 0
2.500000 0.320000 0
2.625000 0.320000 0
2.750000 0.320000 0
2.875000 0.320000 0
3.000000 0.320000 0
3.125000 0.320000 0
3.250000 0.320000 0
3.375000 0.320000 0
3.500000 0.320000 0
3.625000 0.320000 0
3.750000 0.320000 0
3.875000 0.320000 0
4.000000 0.320000 0
4.125000 0.320000 0
4.250000 0.320000 0
4.375000 0.320000 0
4.500000 0.320000 0
4.625000 0.320000 0
4.750000 0.320000 0
4.875000 0.320000 0
5.000000 0.320000 0
5.125000 0.320000 0
5.250000 0.320000 0
5.375000 0.320000 0
5.500000 0.320000 0
5.625000 0.320000 0
5.750000 0.320000 0
5.875000 0.320000 0
6.000000 0.320000 0
6.125000 0.320000 0
6.250000 0.320000 0
6.375000 0.320000 0
6.500000 0.320000 0
6.625000 0.320000 0
6.750000 0.320000 0
6.875000 0.320000 0
7.000000 0.320000 0
7.125000 0.320000 0
7.250000 0.320000 0
7.375000 0.320000 0
7.500000 0.320000 0
7.625000 0.320000 0
7.750000 0.320000 0
7.875000 0.320000 0
8.000000 0.320000 0
8.125000 0.320000 0
8.250000 0.320000 0
8.375000 0.320000 0
8.500000 0.320000 0
8.625000 0.320000 0
8.750000 0.320000 0
8.875000 0.320000 0
9.000000 0.320000 0
9.125000 0.320000 0
9.250000 0.320000 0
9.375000 0.320000 0
9.500000 0.320000 0
9.625000 0.320000 0
9.750000 0.320000 0
9.875000 0.320000 0
10.000000 0.320000 0
0.000000 0.400000 0
0.125000 0.400000 0
0.250000 0.400000 0
0.375000 0.400000 0
0.500000 0.400000 0
0.625000 0.400000 0
0.750000 0.400000 0
0.875000 0.400000 0
1.000000 0.400000 0
1.125000 0.400000 0
1.250000 0.400000 0
1.375000 0.400000 0
1.500000 0.400000 0
1.625000 0.400000 0
1.750000 0.400000 0
1.875000 0.400000 0
2.000000 0.400000 0
2.125000 0.400000 0
2.250000 0.400000 0
2.375000 0.400000 0
2.500000 0.400000 0
2.625000 0.400000 0
2.750000 0.400000 0
2.875000 0.400000 0
3.000000 0.400000 0
3.125000 0.400000 0
3.250000 0.400000 0
3.375000 0.400000 0
3.500000 0.400000 0
3.625000 0.400000 0
3.750000 0.400000 0
3.875000 0.400000 0
4.000000 0.400000 0
4.125000 0.400000 0
4.250000 0.400000 0
4.375000 0.400000 0
4.500000 0.400000 0
4.625000 0.400000 0
4.750000 0.400000 0
4.875000 0.400000 0
5.000000 0.400000 0
5.125000 0.400000 0
5.250000 0.400000 0
5.375000 0.400000 0
5.500000 0.400000 0
5.625000 0.400000 0
5.750000 0.400000 0
5.875000 0.400000 0
6.000000 0.400000 0
6.125000 0.400000 0
6.250000 0.400000 0
6.375000 0.400000 0
6.500000 0.400000 0
6.625000 0.400000 0
6.750000 0.400000 0
6.875000 0.400000 0
7.000000 0.400000 0
7.125000 0.400000 0
7.250000 0.400000 0
7.375000 0.400000 0
7.500000 0.400000 0
7.625000 0.400000 0
7.750000 0.400000 0
7.875000 0.400000 0
8.000000 0.400000 0
8.125000 0.400000 0
8.250000 0.400000 0
8.375000 0.400000 0
8.500000 0.400000 0
8.625000 0.400000 0
8.750000 0.400000 0
8.875000 0.400000 0
9.000000 0.400000 0
9.125000 0.400000 0
9.250000 0.400000 0
9.375000 0.400000 0
9.500000 0.400000 0
9.625000 0.400000 0
9.750000 0.400000 0
9.875000 0.400000 0
10.000000 0.400000 0
0.000000 0.480000 0
0.125000 0.480000 0
0.250000 0.480000 0
0.375000 0.480000 0
0.500000 0.480000 0
[...]
POINT_DATA 2106 

VECTORS velocity float
0.500000 0.000000 0
-0.000004 0.000000 0
-0.000006 0.000000 0
-0.000007 0.000000 0
-0.000009 0.000000 0
-0.000011 0.000000 0
-0.000014 0.000000 0
-0.000018 0.000000 0
-0.000022 0.000000 0
-0.000028 0.000000 0
-0.000036 0.000000 0
-0.000045 0.000000 0
-0.000057 0.000000 0
-0.000067 0.000000 0
-0.000065 0.000000 0
0.000019 0.000000 0
0.000009 0.000000 0
-0.000348 0.000000 0
-0.000317 0.000000 0
-0.000052 0.000000 0
0.000003 0.000000 0
-0.000088 0.000000 0
-0.000137 0.000000 0
-0.000121 0.000000 0
-0.000091 0.000000 0
-0.000068 0.000000 0
-0.000047 0.000000 0
-0.000023 0.000000 0
-0.000003 0.000000 0
0.000008 0.000000 0
0.000019 0.000000 0
0.000092 0.000000 0
0.000507 0.000000 0
-0.002736 0.000000 0
0.000102 0.000000 0
0.000000 0.000000 0
0.000000 0.000000 0
0.000000 0.000000 0
0.000000 0.000000 0
0.000000 0.000000 0
-0.000014 0.000000 0
-0.000003 0.000000 0
0.000016 0.000000 0
0.000018 0.000000 0
-0.000002 0.000000 0
-0.000046 0.000000 0
-0.000071 0.000000 0
-0.000082 0.000000 0
-0.000082 0.000000 0
-0.000071 0.000000 0
-0.000055 0.000000 0
0.000031 0.000000 0
0.000193 0.000000 0
0.000235 0.000000 0
0.000159 0.000000 0
0.001592 0.000000 0
-0.003003 0.000000 0
0.000910 0.000000 0
-0.000282 0.000000 0
-0.000251 0.000000 0
-0.000151 0.000000 0
-0.000114 0.000000 0
-0.000090 0.000000 0
-0.000067 0.000000 0
-0.000043 0.000000 0
-0.000044 0.000000 0
-0.000083 0.000000 0
-0.000105 0.000000 0
-0.000089 0.000000 0
-0.000060 0.000000 0
-0.000037 0.000000 0
-0.000024 0.000000 0
-0.000021 0.000000 0
-0.000026 0.000000 0
-0.000035 0.000000 0
-0.000044 0.000000 0
-0.000052 0.000000 0
-0.000061 0.000000 0
-0.000068 0.000000 0
-0.000072 0.000000 0
-0.000073 0.000000 0
1.000000 -0.001827 0
1.007179 -0.006242 0
1.022568 -0.011907 0
1.047436 -0.018648 0
1.083508 -0.026773 0
1.133195 -0.036749 0
1.199734 -0.049396 0
1.287958 -0.064591 0
1.401420 -0.086737 0
1.556438 -0.117927 0
1.766862 -0.169607 0
2.075750 -0.237700 0
2.496013 -0.336356 0
3.111298 -0.452835 0
3.928061 -0.660764 0
5.275895 -0.700787 0
6.154844 -0.469460 0
6.656548 -0.293412 0
6.981624 -0.207967 0
7.247101 -0.177789 0
7.508990 -0.158756 0
7.730796 -0.128632 0
7.897005 -0.091443 0
8.005788 -0.054578 0
8.065092 -0.022135 0
8.079773 0.011075 0
8.046074 0.050776 0
7.946995 0.111308 0
7.741636 0.205097 0
7.368886 0.329315 0
6.795565 0.476782 0
5.938350 0.644624 0
4.798280 0.838851 0
3.375058 0.996371 0
1.723732 1.041772 0
0.000000 0.000063 0
0.000000 -0.517285 0
0.000000 0.000000 0
0.000000 -0.903708 0
0.000000 0.000008 0
-2.157326 1.314017 0
-3.190306 0.565010 0
-3.537432 0.227074 0
-3.769713 0.109625 0
-3.879284 0.056519 0
-3.935648 0.029223 0
-3.965419 0.014284 0
-3.973429 0.002457 0
-3.959209 -0.010456 0
-3.921489 -0.026520 0
-3.854404 -0.050535 0
-3.739293 -0.099124 0
-3.514360 -0.213297 0
-3.014519 -0.496728 0
-1.905120 -1.283450 0
1.096074 -2.941987 0
6.033179 -2.967976 0
8.536544 -1.376512 0
9.635007 -0.562721 0
9.986925 -0.186416 0
10.066764 -0.052966 0
10.094304 -0.015921 0
10.104254 -0.004368 0
10.108104 0.000414 0
10.107140 0.003559 0
10.100515 0.003980 0
10.097385 0.001674 0
10.100432 0.000758 0
10.100588 0.001443 0
10.100122 0.001650 0
10.099928 0.001808 0
10.099355 0.002272 0
10.097725 0.002793 0
10.095439 0.003077 0
10.092738 0.002863 0
10.090798 0.002081 0
10.090772 0.001420 0
10.091382 0.001558 0
10.090578 0.001895 0
10.089220 0.000924 0
10.089345 -0.000085 0
1.000000 -0.004587 0
1.008234 -0.014432 0
1.024722 -0.025755 0
1.050357 -0.038992 0
1.086667 -0.054877 0
1.135874 -0.074375 0
1.201112 -0.099039 0
1.286615 -0.129069 0
1.398205 -0.171817 0
1.544606 -0.233874 0
1.750826 -0.332350 0
2.030438 -0.466647 0
2.436192 -0.662741 0
3.017996 -0.916500 0
3.863408 -1.385332 0
5.372575 -1.425132 0
6.034133 -0.883608 0
6.357320 -0.529128 0
6.553204 -0.377943 0
6.739729 -0.337504 0
6.976651 -0.309554 0
7.174579 -0.248319 0
7.315537 -0.175984 0
7.407544 -0.107565 0
7.460306 -0.047340 0
7.481790 0.012182 0
7.473261 0.084989 0
7.423366 0.194851 0
7.307489 0.370001 0
7.061106 0.605497 0
6.575065 0.915554 0
5.822795 1.278273 0
4.744676 1.640518 0
3.435142 1.967721 0
1.824021 2.160048 0
0.000000 0.000105 0
0.000000 -1.103089 0
0.000000 0.000000 0
0.000000 -1.380697 0
0.000000 0.000001 0
-1.164044 2.041811 0
-1.726310 0.883279 0
-2.060267 0.370832 0
-2.292213 0.218798 0
-2.369100 0.106211 0
-2.427145 0.055138 0
-2.457209 0.024192 0
-2.460620 -0.003962 0
-2.434862 -0.033230 0
-2.377869 -0.067063 0
-2.295534 -0.116594 0
-2.172939 -0.217616 0
-1.955050 -0.463844 0
-1.470779 -1.029902 0
-0.000123 -2.630768 0
2.466473 -5.080500 0
5.762811 -4.761889 0
7.124599 -2.305159 0
7.691436 -0.928233 0
7.731310 -0.276313 0
7.666089 -0.068711 0
7.666062 -0.023982 0
7.668436 -0.008822 0
7.672791 -0.001836 0
7.676511 0.004868 0
7.668246 0.006254 0
7.664071 0.000064 0
7.674350 -0.002039 0
7.675784 0.000209 0
7.677022 0.000433 0
7.679441 0.000501 0
7.681855 0.001420 0
7.682710 0.002517 0
7.683115 0.003202 0
7.682463 0.002981 0
7.681895 0.001269 0
7.684306 -0.000363 0
7.688310 0.000135 0
7.689546 0.001394 0
7.689148 0.000799 0
7.689266 -0.000151 0
1.000000 -0.007093 0
1.007386 -0.022058 0
1.022796 -0.038863 0
1.046884 -0.058290 0
1.080991 -0.081501 0
1.127122 -0.109991 0
1.188220 -0.145867 0
1.267794 -0.190727 0
1.375316 -0.251848 0
1.508008 -0.343601 0
1.695655 -0.480536 0
1.946069 -0.676331 0
2.297947 -0.968390 0
2.814669 -1.366251 0
3.631999 -2.167691 0
5.220609 -2.090048 0
5.449333 -1.099693 0
5.396482 -0.625614 0
5.335118 -0.452705 0
5.308986 -0.448792 0
5.514062 -0.437056 0
5.680147 -0.345515 0
5.789859 -0.240537 0
5.854985 -0.147226 0
5.894446 -0.069649 0
5.919718 0.002787 0
5.937826 0.088170 0
5.953248 0.217406 0
5.968895 0.436947 0
5.935793 0.798070 0
5.684146 1.269305 0
5.145079 1.816077 0
4.315261 2.366953 0
3.158188 2.865594 0
1.722198 3.240267 0
0.000000 0.000074 0
0.000000 -1.684648 0
0.000000 0.000000 0
0.000000 -1.648714 0
0.000000 -0.000004 0
-0.669748 2.418862 0
-0.972568 1.138597 0
-1.324266 0.589256 0
-1.441496 0.307282 0
-1.517055 0.142879 0
-1.608033 0.085617 0
-1.657831 0.035712 0
-1.671522 -0.011841 0
-1.638305 -0.063413 0
-1.557544 -0.115685 0
-1.441920 -0.181686 0
-1.267134 -0.317030 0
-1.065071 -0.662676 0
-0.609827 -1.747877 0
0.807259 -3.803287 0
2.499204 -6.630261 0
5.122669 -5.949173 0
4.839849 -2.610829 0
4.709015 -0.951012 0
4.331229 -0.170190 0
3.794269 -0.011203 0
3.799681 -0.017419 0
3.787585 -0.008671 0
3.787937 -0.004750 0
3.825432 0.006471 0
3.786205 0.011945 0
3.736153 -0.002230 0
3.800862 -0.006734 0
3.797046 -0.000263 0
3.797212 -0.000687 0
3.802547 -0.001281 0
3.811361 0.000184 0
3.812593 0.001991 0
3.815424 0.003239 0
3.815448 0.003648 0
3.812019 0.000905 0
3.817956 -0.002682 0
3.836098 -0.001792 0
3.842226 0.001363 0
3.841806 0.001107 0
3.842050 -0.000233 0
1.000000 -0.009310 0
1.006308 -0.029016 0
1.020425 -0.051030 0
1.042515 -0.076233 0
1.073757 -0.106226 0
1.115894 -0.142999 0
1.171382 -0.189066 0
1.243552 -0.248808 0
1.339925 -0.325552 0
1.459162 -0.438887 0
1.619551 -0.612706 0
1.825404 -0.852111 0
2.092868 -1.218642 0
2.474015 -1.770290 0
3.104725 -2.925131 0
4.371972 -2.588222 0
3.637130 -0.996163 0
3.036843 -0.456027 0
2.659614 -0.321943 0
2.266026 -0.452025 0
3.081329 -0.547094 0
3.481020 -0.424825 0
3.669016 -0.287877 0
3.762372 -0.174497 0
3.815627 -0.088766 0
3.850268 -0.015577 0
3.878968 0.063534 0
3.916033 0.174970 0
3.992707 0.381176 0
4.109589 0.787740 0
4.223931 1.421614 0
4.049322 2.154363 0
3.548330 2.912132 0
2.648888 3.627285 0
1.487358 4.181292 0
0.000000 0.000036 0
0.000000 -2.205367 0
0.000000 0.000000 0
0.000000 -1.809355 0
0.000000 -0.000014 0
-0.402342 2.664262 0
-0.641895 1.302175 0
-0.841372 0.670950 0
-0.900441 0.342186 0
-1.031720 0.212798 0
-1.149857 0.145239 0
-1.214163 0.064829 0
-1.249889 -0.016455 0
-1.211583 -0.106172 0
-1.107780 -0.192746 0
-0.899659 -0.302452 0
-0.740780 -0.458796 0
-0.527927 -0.884516 0
-0.015880 -2.228190 0
0.883178 -4.620544 0
2.144507 -7.842358 0
3.850103 -6.259898 0
1.582023 -2.040416 0
0.363602 -0.602712 0
0.096072 0.309128 0
0.126685 0.271483 0
0.784434 -0.019702 0
0.551762 -0.001302 0
0.804922 -0.026054 0
0.523569 0.005980 0
0.730010 0.063396 0
0.155943 -0.009313 0
0.826158 -0.041008 0
0.500506 0.002548 0
0.587001 -0.003084 0
0.642573 -0.008551 0
0.698500 -0.005006 0
0.716212 -0.000079 0
0.719188 0.001379 0
0.735876 0.005163 0
0.701514 -0.000332 0
0.725755 -0.015770 0
0.808392 -0.015395 0
0.828951 -0.002255 0
0.802870 0.000916 0
0.803258 -0.000461 0
1.000000 -0.011126 0
1.004648 -0.035125 0
1.017402 -0.062032 0
1.037005 -0.092419 0
1.064669 -0.128460 0
1.101821 -0.172468 0
1.150255 -0.227565 0
1.212866 -0.298592 0
1.292407 -0.389836 0
1.398252 -0.522558 0
1.526186 -0.714928 0
1.654570 -0.979251 0
1.842713 -1.383498 0
2.050164 -2.013836 0
2.308375 -3.382380 0
2.004082 -2.430784 0
-0.006925 -0.245208 0
-0.004743 0.000000 0
-0.000544 0.040621 0
0.107281 -0.718686 0
1.555826 -1.214649 0
2.146607 -0.721631 0
2.403017 -0.420598 0
2.529197 -0.241054 0
2.599380 -0.125899 0
2.637578 -0.037748 0
2.655005 0.046084 0
2.664843 0.144617 0
2.686104 0.313075 0
2.775110 0.650090 0
2.924906 1.307879 0
2.995044 2.248466 0
2.723134 3.263235 0
2.118433 4.184619 0
1.204098 4.935559 0
0.000000 -0.000141 0
0.000000 -2.636775 0
0.000000 0.000000 0
0.000000 -1.906228 0
0.000000 -0.000015 0
-0.246731 2.829683 0
-0.427090 1.419580 0
-0.548534 0.754729 0
-0.664176 0.429109 0
-0.870004 0.302510 0
-0.979377 0.202384 0
-1.066645 0.099736 0
-1.079301 -0.013488 0
-1.052884 -0.154359 0
-0.915587 -0.315313 0
-0.708723 -0.416563 0
-0.518502 -0.554934 0
-0.347026 -1.126608 0
0.140294 -2.650981 0
0.759338 -5.185931 0
1.482328 -8.529088 0
1.753690 -5.589179 0
0.000013 -0.379465 0
0.000006 0.000000 0
0.000041 -0.018559 0
-0.572387 -0.451750 0
-0.280249 -0.289465 0
0.071448 -0.021779 0
-0.096044 0.013297 0
-0.016865 0.054418 0
-0.152753 0.247229 0
-0.163008 -0.063761 0
-0.221412 -0.227252 0
-0.312290 0.152800 0
-0.404548 -0.091606 0
-0.388759 -0.072637 0
-0.340067 -0.046942 0
-0.264422 -0.011246 0
-0.251981 -0.009343 0
-0.231994 0.014963 0
-0.231308 0.007386 0
-0.219263 -0.071081 0
-0.177015 -0.067835 0
-0.121766 0.004900 0
-0.111083 0.017554 0
-0.110707 -0.000727 0
1.000000 -0.012281 0
1.001722 -0.040147 0
1.013642 -0.071735 0
1.030306 -0.106481 0
1.053833 -0.147705 0
1.085287 -0.197770 0
1.125741 -0.260132 0
1.176837 -0.339782 0
1.240253 -0.444195 0
1.322269 -0.588503 0
1.408268 -0.776746 0
1.497300 -1.054685 0
1.593977 -1.471819 0
1.629528 -2.068311 0
1.449567 -2.895635 0
0.156933 0.000031 0
-1.129550 1.684600 0
-0.678527 0.000000 0
-0.410628 1.209281 0
0.000000 0.000003 0
1.131222 -1.835619 0
1.554068 -0.967024 0
1.763298 -0.532731 0
1.871899 -0.300166 0
1.943005 -0.158126 0
1.982622 -0.051173 0
1.993423 0.046088 0
1.987324 0.155070 0
1.981840 0.310608 0
1.997412 0.634910 0
2.091360 1.280860 0
2.186894 2.283501 0
2.057318 3.473167 0
1.653702 4.599472 0
0.946407 5.537093 0
0.000000 -0.000214 0
0.000000 -2.976241 0
0.000000 0.000000 0
0.000000 -1.967269 0
0.000000 -0.000015 0
-0.153811 2.937607 0
-0.287136 1.495333 0
-0.394403 0.822689 0
-0.540367 0.547931 0
-0.729066 0.414531 0
-0.838366 0.271093 0
-0.936230 0.128784 0
-0.939463 -0.025259 0
-0.905405 -0.210945 0
-0.767461 -0.413005 0
-0.585816 -0.556583 0
-0.353571 -0.690278 0
-0.182453 -1.306142 0
0.178967 -2.936259 0
0.535982 -5.479442 0
0.845845 -8.478740 0
0.242857 0.000022 0
0.116799 5.012448 0
1.084408 0.000000 0
1.058561 0.214809 0
0.000000 -0.000839 0
-0.110221 -0.439353 0
-0.164811 -0.119189 0
-0.193960 0.030470 0
-0.128242 0.042277 0
-0.430083 0.156931 0
-0.066309 0.034632 0
-0.935570 0.054536 0
-0.702159 0.119759 0
-0.884120 0.045860 0
-0.945849 -0.049815 0
-0.940723 -0.084578 0
-0.881444 -0.056451 0
-0.859382 -0.019372 0
-0.864816 -0.008064 0
-0.826206 -0.008477 0
-0.835717 -0.050514 0
-0.864986 -0.077789 0
-0.824629 -0.044448 0
-0.780794 -0.006159 0
-0.780522 -0.000939 0
1.000000 -0.012223 0
0.999625 -0.043850 0
1.009101 -0.080323 0
1.023310 -0.118137 0
1.042327 -0.163645 0
1.067426 -0.218486 0
1.099092 -0.286154 0
1.137875 -0.371877 0
1.184222 -0.482908 0
1.237686 -0.630085 0
1.292363 -0.826945 0
1.350414 -1.098101 0
1.361420 -1.468121 0
1.255064 -1.921410 0
0.887780 -2.439916 0
0.000000 0.000024 0
0.000000 1.358313 0
0.000000 0.000000 0
0.000000 1.466728 0
0.000000 0.000082 0
0.672690 -2.192607 0
1.034563 -1.126156 0
1.189305 -0.624007 0
1.269295 -0.356063 0
1.357724 -0.196758 0
1.405886 -0.070012 0
1.411350 0.043079 0
1.373596 0.152034 0
1.389732 0.306622 0
1.391527 0.580001 0
1.476213 1.186614 0
1.579006 2.270256 0
1.524630 3.604481 0
1.255505 4.895606 0
0.720926 5.993932 0
0.000000 -0.000154 0
0.000000 -3.242490 0
0.000000 0.000000 0
0.000000 -2.004672 0
0.000000 -0.000014 0
-0.095643 3.013457 0
-0.194815 1.573563 0
-0.298559 0.916801 0
-0.489002 0.643297 0
-0.573603 0.493233 0
-0.710543 0.334973 0
-0.732278 0.164442 0
-0.790401 -0.033212 0
-0.730764 -0.264436 0
-0.649299 -0.519846 0
-0.454201 -0.681449 0
-0.259401 -0.813082 0
-0.089293 -1.467428 0
0.139953 -3.110775 0
0.353380 -5.612729 0
0.450701 -8.341485 0
0.000000 0.000007 0
0.000000 4.823808 0
0.000000 0.000000 0
0.000000 0.370888 0
0.000000 0.000641 0
-0.522847 -0.191581 0
-0.742612 0.031817 0
-0.555890 -0.010104 0
-0.788690 0.205540 0
-0.722652 0.207596 0
-0.918313 0.259754 0
-1.156312 0.179696 0
-1.115406 0.119876 0
-1.055388 0.064359 0
-1.045530 -0.036408 0
-1.043498 -0.088157 0
-1.056519 -0.063301 0
-1.088678 -0.019981 0
-1.075726 -0.006266 0
-1.080058 -0.011234 0
-1.076285 -0.046258 0
-1.097847 -0.074927 0
-1.112465 -0.048979 0
-1.123289 -0.010671 0
-1.123277 -0.001072 0
1.000000 -0.012037 0
1.000253 -0.045966 0
1.003661 -0.086890 0
1.015884 -0.127743 0
1.030155 -0.175936 0
1.048575 -0.234097 0
1.071111 -0.305216 0
1.097645 -0.394262 0
1.127231 -0.508071 0
1.158936 -0.657710 0
1.189047 -0.848889 0
1.194809 -1.098878 0
1.157368 -1.410792 0
0.999022 -1.765178 0
0.647557 -2.092391 0
0.000000 0.000029 0
0.000000 1.116417 0
0.000000 0.000000 0
0.000000 1.639939 0
0.000000 0.000143 0
0.439389 -2.497733 0
0.754361 -1.297653 0
0.850797 -0.682955 0
0.894998 -0.407951 0
1.095445 -0.245541 0
1.150491 -0.085490 0
1.146644 0.066757 0
1.111062 0.168910 0
1.006975 0.299136 0
1.011740 0.579566 0
1.053611 1.160877 0
1.143249 2.252518 0
1.129065 3.680211 0
0.939868 5.113846 0
0.529871 6.340620 0
0.000000 -0.000041 0
0.000000 -3.437463 0
0.000000 0.000000 0
0.000000 -2.028483 0
0.000000 -0.000012 0
-0.059303 3.062295 0
-0.123604 1.625204 0
-0.198305 1.010973 0
-0.325454 0.723963 0
-0.413997 0.556320 0
-0.489450 0.372649 0
-0.527314 0.179897 0
-0.545202 -0.026223 0
-0.516491 -0.301247 0
-0.439495 -0.590001 0
-0.339184 -0.806113 0
-0.160083 -0.923815 0
-0.050788 -1.561724 0
0.094365 -3.219566 0
0.230139 -5.678317 0
0.245569 -8.252572 0
0.000000 0.000003 0
0.000000 4.723979 0
0.000000 0.000000 0
0.000000 -0.119312 0
0.000000 -0.000334 0
-0.844240 0.035925 0
-0.726199 -0.098038 0
-1.139149 0.059963 0
-1.024202 0.149008 0
-0.892096 0.239894 0
-0.834107 0.312178 0
-0.844031 0.180679 0
-0.768571 0.055171 0
-0.613743 0.001143 0
-0.672203 -0.057421 0
-0.516587 -0.077541 0
-0.437299 -0.027532 0
-0.387190 -0.007076 0
-0.399058 -0.013577 0
-0.389108 -0.008115 0
-0.340849 -0.039126 0
-0.433715 -0.054630 0
-0.373482 -0.028162 0
-0.429046 0.000764 0
-0.429392 -0.000950 0
1.000000 -0.012381 0
1.000533 -0.046188 0
0.999764 -0.090323 0
1.008281 -0.135090 0
1.017363 -0.184564 0
1.029038 -0.244695 0
1.042990 -0.317556 0
1.058630 -0.407790 0
1.074076 -0.522131 0
1.088818 -0.669644 0
1.093777 -0.849900 0
1.069885 -1.077823 0
0.999649 -1.342814 0
0.817356 -1.595128 0
0.478583 -1.800539 0
0.000000 0.000040 0
0.000000 0.943891 0
0.000000 0.000000 0
0.000000 1.748028 0
0.000000 0.000177 0
0.276663 -2.675392 0
0.446816 -1.389453 0
0.560971 -0.714011 0
0.664767 -0.512634 0
0.883067 -0.360270 0
0.985437 -0.102775 0
0.947329 0.068317 0
0.921807 0.241425 0
0.779105 0.370192 0
0.692051 0.550158 0
0.744374 1.102452 0
0.833433 2.221969 0
0.840963 3.734648 0
0.690837 5.279094 0
0.393705 6.595451 0
0.000000 0.000040 0
0.000000 -3.581415 0
0.000000 0.000000 0
0.000000 -2.042631 0
0.000000 -0.000014 0
-0.032475 3.092570 0
-0.071672 1.662528 0
-0.126612 1.045989 0
-0.173366 0.781344 0
-0.243683 0.598194 0
-0.235029 0.407500 0
-0.317458 0.200128 0
-0.247766 -0.040135 0
-0.248543 -0.332085 0
-0.189945 -0.633319 0
-0.180976 -0.860269 0
-0.101308 -0.997652 0
-0.020595 -1.630271 0
0.078392 -3.290564 0
0.157518 -5.709496 0
0.146724 -8.194192 0
0.000000 0.000007 0
0.000000 4.666642 0
0.000000 0.000000 0
0.000000 -0.169897 0
0.000000 0.000175 0
-0.197900 0.273192 0
-0.592533 0.220562 0
-0.715221 0.180622 0
-0.808799 0.047430 0
-0.539824 0.085938 0
-0.276836 0.228997 0
-0.263665 0.137756 0
-0.414009 -0.027505 0
-0.307453 0.002688 0
-0.358050 -0.098584 0
-0.249051 -0.238493 0
-0.060078 -0.146112 0
0.112850 -0.044452 0
0.068371 -0.005035 0
0.108767 -0.048485 0
-0.072595 -0.017705 0
-0.029457 -0.054038 0
0.116482 -0.051964 0
0.076770 0.025115 0
0.076518 -0.000624 0
1.000000 -0.012374 0
0.999369 -0.045810 0
1.000035 -0.091846 0
1.000488 -0.139002 0
1.005276 -0.189218 0
1.010923 -0.250495 0
1.017471 -0.324151 0
1.024007 -0.414155 0
1.028374 -0.527388 0
1.031029 -0.670315 0
1.009350 -0.836769 0
0.974773 -1.038633 0
0.867392 -1.249170 0
0.662521 -1.431692 0
0.376533 -1.569280 0
0.000000 0.000033 0
0.000000 0.810126 0
0.000000 0.000000 0
0.000000 1.817031 0
0.000000 0.000176 0
0.175404 -2.783689 0
0.284232 -1.479607 0
0.366905 -0.822440 0
0.516239 -0.614089 0
0.663411 -0.450766 0
0.761660 -0.126614 0
0.720039 0.107483 0
0.648250 0.276576 0
0.648244 0.446184 0
0.512171 0.601797 0
0.516039 1.070396 0
0.599272 2.190704 0
0.622955 3.771477 0
0.515815 5.400095 0
0.297589 6.782759 0
0.000000 0.000061 0
0.000000 -3.689333 0
0.000000 0.000000 0
0.000000 -2.049278 0
0.000000 -0.000017 0
-0.010517 3.108173 0
-0.027934 1.685455 0
-0.056378 1.076061 0
-0.068539 0.798893 0
-0.084178 0.595788 0
-0.067498 0.419868 0
-0.027637 0.188053 0
0.046346 -0.070325 0
0.046800 -0.338249 0
0.029584 -0.633240 0
0.006995 -0.862837 0
-0.030072 -1.026455 0
0.016474 -1.676729 0
0.080179 -3.333555 0
0.123843 -5.722046 0
0.100493 -8.151757 0
0.000000 0.000017 0
0.000000 4.630087 0
0.000000 0.000000 0
0.000000 -0.246032 0
0.000000 -0.000394 0
-0.241638 0.415153 0
-0.467018 0.233051 0
-0.275988 0.198377 0
-0.181806 0.036758 0
0.000031 -0.100559 0
0.085043 0.135441 0
0.099994 0.268473 0
-0.097775 0.083199 0
-0.112084 -0.034667 0
-0.068696 -0.094795 0
-0.123306 -0.268240 0
-0.076170 -0.259145 0
-0.001717 -0.089280 0
-0.020349 -0.010961 0
-0.177018 0.082107 0
-0.241019 0.049341 0
0.001980 -0.175636 0
-0.045612 -0.096144 0
-0.038534 0.026345 0
-0.038499 -0.000623 0
1.000000 -0.011973 0
0.999277 -0.046204 0
0.999437 -0.091037 0
0.995940 -0.138441 0
0.996569 -0.191240 0
0.997386 -0.252496 0
0.998274 -0.325926 0
0.996411 -0.414765 0
0.993978 -0.526622 0
0.975354 -0.657466 0
0.941305 -0.813894 0
0.868679 -0.986967 0
0.752716 -1.142969 0
0.557064 -1.280975 0
0.308436 -1.376522 0
0.000000 0.000021 0
0.000000 0.702889 0
0.000000 0.000000 0
0.000000 1.860247 0
0.000000 0.000143 0
0.109933 -2.857294 0
0.181749 -1.512011 0
0.197257 -0.862492 0
0.364592 -0.702395 0
0.399851 -0.517336 0
0.476929 -0.139014 0
0.406748 0.140903 0
0.400175 0.287378 0
0.449603 0.457286 0
0.409422 0.634772 0
0.349268 1.046711 0
0.426149 2.153547 0
0.463763 3.788065 0
0.396085 5.487331 0
0.229598 6.925576 0
0.000000 0.000034 0
0.000000 -3.771880 0
0.000000 0.000000 0
0.000000 -2.049373 0
0.000000 -0.000020 0
0.009798 3.110456 0
0.013598 1.691882 0
0.017670 1.071979 0
0.059414 0.799140 0
0.047861 0.597532 0
0.115412 0.371318 0
0.231292 0.127271 0
0.272677 -0.087771 0
0.262856 -0.321353 0
0.190143 -0.607840 0
0.139498 -0.822084 0
0.042305 -1.003715 0
0.056592 -1.700828 0
0.098611 -3.359277 0
0.118820 -5.722494 0
0.084465 -8.114928 0
0.000000 0.000028 0
0.000000 4.602344 0
0.000000 0.000000 0
0.000000 -0.324996 0
0.000000 -0.000271 0
-0.159482 0.572090 0
-0.216885 0.242550 0
-0.222161 -0.001910 0