# vtk DataFile Version 2.0
generated by CFD-lab course output (written by Tobias Neckel) 
ASCII

DATASET STRUCTURED_GRID
DIMENSIONS  81 26 1 
POINTS 2106 float

0.000000 0.000000 0
0.125000 0.000000 0
0.250000 0.000000 0
0.375000 0.000000 0
0.500000 0.000000 0
0.625000 0.000000 0
0.750000 0.000000 0
0.875000 0.000000 0
1.000000 0.000000 0
1.125000 0.000000 0
1.250000 0.000000 0
1.375000 0.000000 0
1.500000 0.000000 0
1.625000 0.000000 0
1.750000 0.000000 0
1.875000 0.000000 0
2.000000 0.000000 0
2.125000 0.000000 0
2.250000 0.000000 0
2.375000 0.000000 0
2.500000 0.000000 0
2.625000 0.000000 0
2.750000 0.000000 0
2.875000 0.000000 0
3.000000 0.000000 0
3.125000 0.000000 0
3.250000 0.000000 0
3.375000 0.000000 0
3.500000 0.000000 0
3.625000 0.000000 0
3.750000 0.000000 0
3.875000 0.000000 0
4.000000 0.000000 0
4.125000 0.000000 0
4.250000 0.000000 0
4.375000 0.000000 0
4.500000 0.000000 0
4.625000 0.000000 0
4.750000 0.000000 0
4.875000 0.000000 0
5.000000 0.000000 0
5.125000 0.000000 0
5.250000 0.000000 0
5.375000 0.000000 0
5.500000 0.000000 0
5.625000 0.000000 0
5.750000 0.000000 0
5.875000 0.000000 0
6.000000 0.000000 0
6.125000 0.000000 0
6.250000 0.000000 0
6.375000 0.000000 0
6.500000 0.000000 0
6.625000 0.000000 0
6.750000 0.000000 0
6.875000 0.000000 0
7.000000 0.000000 0
7.125000 0.000000 0
7.250000 0.000000 0
7.375000 0.000000 0
7.500000 0.000000 0
7.625000 0.000000 0
7.750000 0.000000 0
7.875000 0.000000 0
8.000000 0.000000 0
8.125000 0.000000 0
8.250000 0.000000 0
8.375000 0.000000 0
8.500000 0.000000 0
8.625000 0.000000 0
8.750000 0.000000 0
8.875000 0.000000 0
9.000000 0.000000 0
9.125000 0.000000 0
9.250000 0.000000 0
9.375000 0.000000 0
9.500000 0.000000 0
9.625000 0.000000 0
9.750000 0.000000 0
9.875000 0.000000 0
10.000000 0.000000 0
0.000000 0.080000 0
0.125000 0.080000 0
0.250000 0.080000 0
0.375000 0.080000 0
0.500000 0.080000 0
0.625000 0.080000 0
0.750000 0.080000 0
0.875000 0.080000 0
1.000000 0.080000 0
1.125000 0.080000 0
1.250000 0.080000 0
1.375000 0.080000 0
1.500000 0.080000 0
1.625000 0.080000 0
1.750000 0.080000 0
1.875000 0.080000 0
2.000000 0.080000 0
2.125000 0.080000 0
2.250000 0.080000 0
2.375000 0.080000 0
2.500000 0.080000 0
2.625000 0.080000 0
2.750000 0.080000 0
2.875000 0.080000 0
3.000000 0.080000 0
3.125000 0.080000 0
3.250000 0.080000 0
3.375000 0.080000 0
3.500000 0.080000 0
3.625000 0.080000 0
3.750000 0.080000 0
3.875000 0.080000 0
4.000000 0.080000 0
4.125000 0.080000 0
4.250000 0.080000 0
4.375000 0.080000 0
4.500000 0.080000 0
4.625000 0.080000 0
4.750000 0.080000 0
4.875000 0.080000 0
5.000000 0.080000 0
5.125000 0.080000 0
5.250000 0.080000 0
5.375000 0.080000 0
5.500000 0.080000 0
5.625000 0.080000 0
5.750000 0.080000 0
5.875000 0.080000 0
6.000000 0.080000 0
6.125000 0.080000 0
6.250000 0.080000 0
6.375000 0.080000 0
6.500000 0.080000 0
6.625000 0.080000 0
6.750000 0.080000 0
6.875000 0.080000 0
7.000000 0.080000 0
7.125000 0.080000 0
7.250000 0.080000 0
7.375000 0.080000 0
7.500000 0.080000 0
7.625000 0.080000 0
7.750000 0.080000 0
7.875000 0.080000 0
8.000000 0.080000 0
8.125000 0.080000 0
8.250000 0.080000 0
8.375000 0.080000 0
8.500000 0.080000 0
8.625000 0.080000 0
8.750000 0.080000 0
8.875000 0.080000 0
9.000000 0.080000 0
9.125000 0.080000 0
9.250000 0.080000 0
9.375000 0.080000 0
9.500000 0.080000 0
9.625000 0.080000 0
9.750000 0.080000 0
9.875000 0.080000 0
10.000000 0.080000 0
0.000000 0.160000 0
0.125000 0.160000 0
0.250000 0.160000 0
0.375000 0.160000 0
0.500000 0.160000 0
0.625000 0.160000 0
0.750000 0.160000 0
0.875000 0.160000 0
1.000000 0.160000 0
1.125000 0.160000 0
1.250000 0.160000 0
1.375000 0.160000 0
1.500000 0.160000 0
1.625000 0.160000 0
1.750000 0.160000 0
1.875000 0.160000 0
2.000000 0.160000 0
2.125000 0.160000 0
2.250000 0.160000 0
2.375000 0.160000 0
2.500000 0.160000 0
2.625000 0.160000 0
2.750000 0.160000 0
2.875000 0.160000 0
3.000000 0.160000 0
3.125000 0.160000 0
3.250000 0.160000 0
3.375000 0.160000 0
3.500000 0.160000 0
3.625000 0.160000 0
3.750000 0.160000 0
3.875000 0.160000 0
4.000000 0.160000 0
4.125000 0.160000 0
4.250000 0.160000 0
4.375000 0.160000 0
4.500000 0.160000 0
4.625000 0.160000 0
4.750000 0.160000 0
4.875000 0.160000 0
5.000000 0.160000 0
5.125000 0.160000 0
5.250000 0.160000 0
5.375000 0.160000 0
5.500000 0.160000 0
5.625000 0.160000 0
5.750000 0.160000 0
5.875000 0.160000 0
6.000000 0.160000 0
6.125000 0.160000 0
6.250000 0.160000 0
6.375000 0.160000 0
6.500000 0.160000 0
6.625000 0.160000 0
6.750000 0.160000 0
6.875000 0.160000 0
7.000000 0.160000 0
7.125000 0.160000 0
7.250000 0.160000 0
7.375000 0.160000 0
7.500000 0.160000 0
7.625000 0.160000 0
7.750000 0.160000 0
7.875000 0.160000 0
8.000000 0.160000 0
8.125000 0.160000 0
8.250000 0.160000 0
8.375000 0.160000 0
8.500000 0.160000 0
8.625000 0.160000 0
8.750000 0.160000 0
8.875000 0.160000 0
9.000000 0.160000 0
9.125000 0.160000 0
9.250000 0.160000 0
9.375000 0.160000 0
9.500000 0.160000 0
9.625000 0.160000 0
9.750000 0.160000 0
9.875000 0.160000 0
10.000000 0.160000 0
0.000000 0.240000 0
0.125000 0.240000 0
0.250000 0.240000 0
0.375000 0.240000 0
0.500000 0.240000 0
0.625000 0.240000 0
0.750000 0.240000 0
0.875000 0.240000 0
1.000000 0.240000 0
1.125000 0.240000 0
1.250000 0.240000 0
1.375000 0.240000 0
1.500000 0.240000 0
1.625000 0.240000 0
1.750000 0.240000 0
1.875000 0.240000 0
2.000000 0.240000 0
2.125000 0.240000 0
2.250000 0.240000 0
2.375000 0.240000 0
2.500000 0.240000 0
2.625000 0.240000 0
2.750000 0.240000 0
2.875000 0.240000 0
3.000000 0.240000 0
3.125000 0.240000 0
3.250000 0.240000 0
3.375000 0.240000 0
3.500000 0.240000 0
3.625000 0.240000 0
3.750000 0.240000 0
3.875000 0.240000 0
4.000000 0.240000 0
4.125000 0.240000 0
4.250000 0.240000 0
4.375000 0.240000 0
4.500000 0.240000 0
4.625000 0.240000 0
4.750000 0.240000 0
4.875000 0.240000 0
5.000000 0.240000 0
5.125000 0.240000 0
5.250000 0.240000 0
5.375000 0.240000 0
5.500000 0.240000 0
5.625000 0.240000 0
5.750000 0.240000 0
5.875000 0.240000 0
6.000000 0.240000 0
6.125000 0.240000 0
6.250000 0.240000 0
6.375000 0.240000 0
6.500000 0.240000 0
6.625000 0.240000 0
6.750000 0.240000 0
6.875000 0.240000 0
7.000000 0.240000 0
7.125000 0.240000 0
7.250000 0.240000 0
7.375000 0.240000 0
7.500000 0.240000 0
7.625000 0.240000 0
7.750000 0.240000 0
7.875000 0.240000 0
8.000000 0.240000 0
8.125000 0.240000 0
8.250000 0.240000 0
8.375000 0.240000 0
8.500000 0.240000 0
8.625000 0.240000 0
8.750000 0.240000 0
8.875000 0.240000 0
9.000000 0.240000 0
9.125000 0.240000 0
9.250000 0.240000 0
9.375000 0.240000 0
9.500000 0.240000 0
9.625000 0.240000 0
9.750000 0.240000 0
9.875000 0.240000 0
10.000000 0.240000 0
0.000000 0.320000 0
0.125000 0.320000 0
0.250000 0.320000 0
0.375000 0.320000 0
0.500000 0.320000 0
0.625000 0.320000 0
0.750000 0.320000 0
0.875000 0.320000 0
1.000000 0.320000 0
1.125000 0.320000 0
1.250000 0.320000 0
1.375000 0.320000 0
1.500000 0.320000 0
1.625000 0.320000 0
1.750000 0.320000 0
1.875000 0.320000 0
2.000000 0.320000 0
2.125000 0.320000 0
2.250000 0.320000 0
2.375000 0.320000 0
2.500000 0.320000 0
2.625000 0.320000 0
2.750000 0.320000 0
2.875000 0.320000 0
3.000000 0.320000 0
3.125000 0.320000 0
3.250000 0.320000 0
3.375000 0.320000 0
3.500000 0.320000 0
3.625000 0.320000 0
3.750000 0.320000 0
3.875000 0.320000 0
4.000000 0.320000 0
4.125000 0.320000 0
4.250000 0.320000 0
4.375000 0.320000 0
4.500000 0.320000 0
4.625000 0.320000 0
4.750000 0.320000 0
4.875000 0.320000 0
5.000000 0.320000 0
5.125000 0.320000 0
5.250000 0.320000 0
5.375000 0.320000 0
5.500000 0.320000 0
5.625000 0.320000 0
5.750000 0.320000 0
5.875000 0.320000 0
6.000000 0.320000 0
6.125000 0.320000 0
6.250000 0.320000 0
6.375000 0.320000 0
6.500000 0.320000 0
6.625000 0.320000 0
6.750000 0.320000 0
6.875000 0.320000 0
7.000000 0.320000 0
7.125000 0.320000 0
7.250000 0.320000 0
7.375000 0.320000 0
7.500000 0.320000 0
7.625000 0.320000 0
7.750000 0.320000 0
7.875000 0.320000 0
8.000000 0.320000 0
8.125000 0.320000 0
8.250000 0.320000 0
8.375000 0.320000 0
8.500000 0.320000 0
8.625000 0.320000 0
8.750000 0.320000 0
8.875000 0.320000 0
9.000000 0.320000 0
9.125000 0.320000 0
9.250000 0.320000 0
9.375000 0.320000 0
9.500000 0.320000 0
9.625000 0.320000 0
9.750000 0.320000 0
9.875000 0.320000 0
10.000000 0.320000 0
0.000000 0.400000 0
0.125000 0.400000 0
0.250000 0.400000 0
0.375000 0.400000 0
0.500000 0.400000 0
0.625000 0.400000 0
0.750000 0.400000 0
0.875000 0.400000 0
1.000000 0.400000 0
1.125000 0.400000 0
1.250000 0.400000 0
1.375000 0.400000 0
1.500000 0.400000 0
1.625000 0.400000 0
1.750000 0.400000 0
1.875000 0.400000 0
2.000000 0.400000 0
2.125000 0.400000 0
2.250000 0.400000 0
2.375000 0.400000 0
2.500000 0.400000 0
2.625000 0.400000 0
2.750000 0.400000 0
2.875000 0.400000 0
3.000000 0.400000 0
3.125000 0.400000 0
3.250000 0.400000 0
3.375000 0.400000 0
3.500000 0.400000 0
3.625000 0.400000 0
3.750000 0.400000 0
3.875000 0.400000 0
4.000000 0.400000 0
4.125000 0.400000 0
4.250000 0.400000 0
4.375000 0.400000 0
4.500000 0.400000 0
4.625000 0.400000 0
4.750000 0.400000 0
4.875000 0.400000 0
5.000000 0.400000 0
5.125000 0.400000 0
5.250000 0.400000 0
5.375000 0.400000 0
5.500000 0.400000 0
5.625000 0.400000 0
5.750000 0.400000 0
5.875000 0.400000 0
6.000000 0.400000 0
6.125000 0.400000 0
6.250000 0.400000 0
6.375000 0.400000 0
6.500000 0.400000 0
6.625000 0.400000 0
6.750000 0.400000 0
6.875000 0.400000 0
7.000000 0.400000 0
7.125000 0.400000 0
7.250000 0.400000 0
7.375000 0.400000 0
7.500000 0.400000 0
7.625000 0.400000 0
7.750000 0.400000 0
7.875000 0.400000 0
8.000000 0.400000 0
8.125000 0.400000 0
8.250000 0.400000 0
8.375000 0.400000 0
8.500000 0.400000 0
8.625000 0.400000 0
8.750000 0.400000 0
8.875000 0.400000 0
9.000000 0.400000 0
9.125000 0.400000 0
9.250000 0.400000 0
9.375000 0.400000 0
9.500000 0.400000 0
9.625000 0.400000 0
9.750000 0.400000 0
9.875000 0.400000 0
10.000000 0.400000 0
0.000000 0.480000 0
0.125000 0.480000 0
0.250000 0.480000 0
0.375000 0.480000 0
0.500000 0.480000 0
[...]
POINT_DATA 2106 

VECTORS velocity float
0.500000 0.000000 0
0.000002 0.000000 0
0.000003 0.000000 0
0.000004 0.000000 0
0.000006 0.000000 0
0.000007 0.000000 0
0.000009 0.000000 0
0.000011 0.000000 0
0.000014 0.000000 0
0.000019 0.000000 0
0.000024 0.000000 0
0.000029 0.000000 0
0.000034 0.000000 0
0.000033 0.000000 0
0.000008 0.000000 0
0.000064 0.000000 0
0.000454 0.000000 0
0.000268 0.000000 0
-0.000204 0.000000 0
-0.000153 0.000000 0
0.000337 0.000000 0
0.000868 0.000000 0
0.001219 0.000000 0
0.001400 0.000000 0
0.001460 0.000000 0
0.001491 0.000000 0
0.001418 0.000000 0
0.001318 0.000000 0
0.001179 0.000000 0
0.000985 0.000000 0
0.000732 0.000000 0
0.000474 0.000000 0
0.000294 0.000000 0
0.000467 0.000000 0
0.000699 0.000000 0
0.000000 0.000000 0
0.000000 0.000000 0
0.000000 0.000000 0
0.000000 0.000000 0
0.000000 0.000000 0
-0.000748 0.000000 0
-0.000616 0.000000 0
-0.000650 0.000000 0
-0.000565 0.000000 0
-0.000536 0.000000 0
-0.000570 0.000000 0
-0.000674 0.000000 0
-0.000874 0.000000 0
-0.000980 0.000000 0
-0.000623 0.000000 0
0.000159 0.000000 0
0.001147 0.000000 0
0.001385 0.000000 0
0.000460 0.000000 0
-0.001273 0.000000 0
0.000852 0.000000 0
0.000220 0.000000 0
0.000049 0.000000 0
-0.000035 0.000000 0
-0.000145 0.000000 0
-0.000227 0.000000 0
-0.000267 0.000000 0
-0.000238 0.000000 0
-0.000104 0.000000 0
0.000121 0.000000 0
0.000366 0.000000 0
0.000557 0.000000 0
0.000642 0.000000 0
0.000591 0.000000 0
0.000400 0.000000 0
0.000092 0.000000 0
-0.000278 0.000000 0
-0.000632 0.000000 0
-0.000882 0.000000 0
-0.000950 0.000000 0
-0.000783 0.000000 0
-0.000387 0.000000 0
0.000164 0.000000 0
0.000743 0.000000 0
0.001197 0.000000 0
0.001340 0.000000 0
1.000000 -0.001811 0
1.007220 -0.006206 0
1.022619 -0.011870 0
1.047504 -0.018615 0
1.083594 -0.026741 0
1.133292 -0.036717 0
1.199842 -0.049369 0
1.288093 -0.064573 0
1.401603 -0.086719 0
1.556658 -0.117879 0
1.767050 -0.169503 0
2.075793 -0.237517 0
2.495791 -0.336042 0
3.110477 -0.452382 0
3.926135 -0.661480 0
5.276101 -0.703767 0
6.165355 -0.470383 0
6.661871 -0.291250 0
6.982516 -0.205680 0
7.246705 -0.171630 0
7.495582 -0.143766 0
7.687491 -0.105405 0
7.815820 -0.067837 0
7.892209 -0.036447 0
7.928304 -0.009053 0
7.926968 0.020544 0
7.880318 0.060476 0
7.767420 0.121062 0
7.548280 0.210552 0
7.173677 0.335281 0
6.580770 0.480304 0
5.724902 0.633292 0
4.596986 0.824148 0
3.213444 0.999907 0
1.610408 0.985553 0
0.000000 0.000446 0
0.000000 -0.452635 0
0.000000 0.000000 0
0.000000 -0.893641 0
0.000000 0.000475 0
-2.160461 1.309996 0
-3.229097 0.576710 0
-3.577641 0.224145 0
-3.723172 0.094535 0
-3.818621 0.051901 0
-3.899195 0.035923 0
-3.969995 0.026366 0
-4.032443 0.019952 0
-4.080053 0.010674 0
-4.105491 -0.010656 0
-4.084998 -0.056586 0
-3.955240 -0.141496 0
-3.625325 -0.294128 0
-2.935989 -0.600984 0
-1.684224 -1.278760 0
1.190555 -2.799824 0
6.019331 -2.875849 0
8.492401 -1.367206 0
9.593757 -0.565498 0
9.952313 -0.190530 0
10.035031 -0.053753 0
10.059497 -0.015480 0
10.067004 -0.004727 0
10.072051 -0.001156 0
10.074117 0.001702 0
10.072134 0.004340 0
10.066770 0.006396 0
10.058544 0.007640 0
10.048768 0.007755 0
10.039289 0.006623 0
10.032003 0.004406 0
10.028407 0.001520 0
10.029334 -0.001435 0
10.034641 -0.003801 0
10.043306 -0.005003 0
10.053437 -0.004719 0
10.062881 -0.002967 0
10.069703 0.000063 0
10.071676 0.003593 0
10.067915 0.003447 0
10.066489 0.001675 0
1.000000 -0.004581 0
1.008288 -0.014410 0
1.024793 -0.025730 0
1.050466 -0.038972 0
1.086809 -0.054852 0
1.136028 -0.074347 0
1.201274 -0.099021 0
1.286806 -0.129075 0
1.398458 -0.171829 0
1.544935 -0.233834 0
1.751172 -0.332194 0
2.030674 -0.466342 0
2.436265 -0.662145 0
3.017626 -0.915368 0
3.861376 -1.385947 0
5.367698 -1.433048 0
6.049326 -0.886840 0
6.368281 -0.522930 0
6.555525 -0.374241 0
6.745438 -0.328309 0
6.976444 -0.282050 0
7.150544 -0.204899 0
7.259044 -0.130966 0
7.322830 -0.071936 0
7.357998 -0.022192 0
7.369204 0.030765 0
7.352476 0.102164 0
7.295279 0.212558 0
7.167849 0.380049 0
6.908325 0.619260 0
6.406870 0.927270 0
5.649697 1.269676 0
4.579733 1.607387 0
3.302005 1.911464 0
1.789874 2.056658 0
0.000000 0.000171 0
0.000000 -1.030516 0
0.000000 0.000000 0
0.000000 -1.381884 0
0.000000 0.000854 0
-1.185156 2.066692 0
-1.760107 0.907050 0
-1.808322 0.316262 0
-1.941471 0.154282 0
-2.085796 0.112710 0
-2.207768 0.096934 0
-2.320326 0.085334 0
-2.425425 0.070492 0
-2.519820 0.046805 0
-2.595568 0.003219 0
-2.615008 -0.096106 0
-2.519899 -0.294136 0
-2.208469 -0.652265 0
-1.469374 -1.242250 0
-0.011542 -2.640933 0
2.477794 -4.930220 0
5.799349 -4.673126 0
7.141943 -2.287577 0
7.713270 -0.934289 0
7.765767 -0.282360 0
7.705242 -0.068542 0
7.698303 -0.020407 0
7.695357 -0.007979 0
7.701147 -0.004496 0
7.706903 0.000003 0
7.709616 0.004758 0
7.710556 0.008754 0
7.708888 0.011577 0
7.704989 0.012379 0
7.699945 0.010786 0
7.695133 0.007021 0
7.691887 0.001764 0
7.691567 -0.003934 0
7.694922 -0.008886 0
7.702423 -0.011973 0
7.713463 -0.012472 0
7.726759 -0.010354 0
7.741422 -0.005573 0
7.754668 0.001200 0
7.760564 0.003376 0
7.761485 0.002043 0
1.000000 -0.007093 0
1.007437 -0.022043 0
1.022833 -0.038847 0
1.046974 -0.058288 0
1.081129 -0.081483 0
1.127261 -0.109958 0
1.188346 -0.145849 0
1.267937 -0.190754 0
1.375529 -0.251904 0
1.508356 -0.343599 0
1.696095 -0.480358 0
1.946442 -0.675959 0
2.298364 -0.967674 0
2.815285 -1.364436 0
3.630395 -2.165508 0
5.212994 -2.104037 0
5.389089 -1.110739 0
5.403338 -0.615200 0
5.345498 -0.447043 0
5.325645 -0.441001 0
5.529331 -0.403016 0
5.674739 -0.286252 0
5.748969 -0.178082 0
5.789917 -0.099760 0
5.820731 -0.038715 0
5.847310 0.024097 0
5.869883 0.107805 0
5.888883 0.239241 0
5.905470 0.458220 0
5.870790 0.822326 0
5.602707 1.285844 0
5.052535 1.802678 0
4.222780 2.326689 0
3.069928 2.785435 0
1.686847 3.098854 0
0.000000 -0.000071 0
0.000000 -1.598680 0
0.000000 0.000000 0
0.000000 -1.652342 0
0.000000 0.000298 0
-0.642431 2.436497 0
-0.840360 0.975555 0
-0.895478 0.340236 0
-1.095348 0.272136 0
-1.239908 0.222349 0
-1.375937 0.186040 0
-1.461891 0.165685 0
-1.516371 0.147647 0
-1.549887 0.119584 0
-1.570240 0.050282 0
-1.583234 -0.104996 0
-1.538114 -0.401663 0
-1.315646 -0.966445 0
-0.678921 -2.006999 0
0.738725 -3.804929 0
2.501807 -6.518775 0
5.146342 -5.860886 0
4.872848 -2.592096 0
4.746182 -0.964727 0
4.386967 -0.185374 0
3.895106 -0.010557 0
3.880546 -0.009135 0
3.852570 -0.006529 0
3.878369 -0.008527 0
3.900114 -0.003700 0
3.907605 0.002020 0
3.912348 0.006881 0
3.909268 0.011222 0
3.900082 0.013497 0
3.888327 0.012949 0
3.878976 0.009582 0
3.874968 0.003821 0
3.880505 -0.003359 0
3.895196 -0.010730 0
3.919409 -0.016850 0
3.950478 -0.020276 0
3.984153 -0.020842 0
4.019937 -0.017780 0
4.058574 -0.008639 0
4.087043 -0.000897 0
4.089822 0.000653 0
1.000000 -0.009318 0
1.006364 -0.028992 0
1.020392 -0.051017 0
1.042588 -0.076264 0
1.073910 -0.106218 0
1.116026 -0.142948 0
1.171465 -0.189037 0
1.243633 -0.248855 0
1.340081 -0.325680 0
1.459512 -0.438979 0
1.620133 -0.612552 0
1.825950 -0.851777 0
2.093735 -1.218187 0
2.476450 -1.767850 0
3.104487 -2.920464 0
4.373301 -2.558595 0
3.628668 -1.008643 0
3.034333 -0.495014 0
2.667446 -0.324500 0
2.271855 -0.445944 0
3.049148 -0.505452 0
3.365604 -0.345450 0
3.454465 -0.204662 0
3.499239 -0.117845 0
3.551794 -0.058906 0
3.611063 -0.000675 0
3.670529 0.075575 0
3.732516 0.189800 0
3.825417 0.391647 0
3.991111 0.813046 0
4.148520 1.450971 0
3.986253 2.152846 0
3.486306 2.876273 0
2.601967 3.534479 0
1.462105 4.021430 0
0.000000 -0.000128 0
0.000000 -2.110407 0
0.000000 0.000000 0
0.000000 -1.793260 0
0.000000 0.000656 0
-0.341005 2.604555 0
-0.427105 1.069019 0
-0.645362 0.479473 0
-0.900935 0.374735 0
-1.009931 0.292304 0
-1.112036 0.239022 0
-1.165968 0.175230 0
-1.162185 0.126828 0
-1.104144 0.081300 0
-1.001521 0.024579 0
-0.881559 -0.116649 0
-0.814196 -0.465373 0
-0.661571 -1.202130 0
-0.139576 -2.557029 0
0.841458 -4.676581 0
2.126477 -7.751077 0
3.868404 -6.190574 0
1.630852 -2.031457 0
0.408479 -0.623306 0
0.123496 0.262347 0
0.150030 0.255586 0
0.721671 0.006835 0
0.340865 -0.006567 0
0.845024 -0.034906 0
0.594207 -0.018690 0
0.766567 -0.003053 0
0.775338 0.007708 0
0.788628 0.019446 0
0.796260 0.025800 0
0.804185 0.024312 0
0.820593 0.015590 0
0.840790 0.000804 0
0.878641 -0.016862 0
0.908906 -0.033766 0
0.935405 -0.047335 0
0.980378 -0.053889 0
1.001198 -0.054789 0
1.001150 -0.053184 0
1.106351 -0.041729 0
1.196362 -0.016604 0
1.199165 -0.001410 0
1.000000 -0.011143 0
1.004724 -0.035062 0
1.017202 -0.062013 0
1.037071 -0.092522 0
1.064886 -0.128466 0
1.101974 -0.172376 0
1.150290 -0.227500 0
1.212854 -0.298651 0
1.292447 -0.390050 0
1.398501 -0.522815 0
1.526914 -0.714862 0
1.655422 -0.979047 0
1.843862 -1.383977 0
2.054738 -2.011300 0
2.310435 -3.379475 0
2.014117 -2.439496 0
0.015985 -0.253782 0
0.003372 0.000000 0
0.000051 0.040961 0
0.101222 -0.685272 0
1.444864 -1.102998 0
1.900606 -0.545637 0
2.039439 -0.263591 0
2.141480 -0.162032 0
2.248128 -0.110264 0
2.349025 -0.051876 0
2.421378 0.030093 0
2.453499 0.140130 0
2.458852 0.292737 0
2.521489 0.615558 0
2.777305 1.288971 0
2.885531 2.226512 0
2.664332 3.212649 0
2.081415 4.080941 0
1.178835 4.764131 0
0.000000 -0.000037 0
0.000000 -2.534402 0
0.000000 0.000000 0
0.000000 -1.870213 0
0.000000 0.000694 0
-0.190299 2.709877 0
-0.275909 1.170362 0
-0.498046 0.643506 0
-0.744164 0.505479 0
-0.904215 0.357472 0
-1.016934 0.285922 0
-1.074384 0.197798 0
-1.101260 0.108098 0
-1.055582 0.016777 0
-0.926035 -0.092154 0
-0.673572 -0.224865 0
-0.423393 -0.542437 0
-0.250707 -1.398184 0
0.109647 -2.968919 0
0.726088 -5.255185 0
1.472963 -8.456003 0
1.762762 -5.543668 0
0.000378 -0.377726 0
0.000155 0.000000 0
0.000132 -0.019948 0
-0.621822 -0.393371 0
-0.462415 -0.131250 0
0.008548 -0.085455 0
-0.196015 -0.170647 0
-0.079185 0.046531 0
-0.020265 -0.113885 0
-0.005634 -0.007219 0
0.024888 -0.002150 0
0.055726 0.003559 0
0.088750 -0.002606 0
0.127617 -0.013827 0
0.170896 -0.033311 0
0.211158 -0.046934 0
0.250020 -0.047040 0
0.253484 -0.062574 0
0.247814 -0.062365 0
0.199486 -0.034117 0
0.211167 -0.085059 0
0.307522 -0.133557 0
0.344016 -0.060280 0
0.346009 -0.002927 0
1.000000 -0.012318 0
1.001829 -0.039969 0
1.012974 -0.071702 0
1.030339 -0.106765 0
1.054162 -0.147739 0
1.085486 -0.197589 0
1.125729 -0.259983 0
1.176708 -0.339818 0
1.240103 -0.444476 0
1.322293 -0.589020 0
1.409080 -0.776965 0
1.498670 -1.054607 0
1.595114 -1.473732 0
1.635547 -2.066439 0
1.451428 -2.894449 0
0.162421 -0.000028 0
-1.166959 1.687127 0
-0.668869 0.000000 0
-0.409447 1.132601 0
0.000000 -0.000141 0
1.054745 -1.640255 0
1.374166 -0.725960 0
1.528205 -0.358804 0
1.673181 -0.251389 0
1.834340 -0.191717 0
1.995758 -0.111537 0
2.099378 0.008729 0
2.119769 0.165834 0
2.055741 0.348152 0
1.937439 0.609254 0
1.979652 1.218002 0
2.065983 2.225167 0
2.001711 3.390925 0
1.617395 4.485215 0
0.928281 5.353553 0
0.000000 0.000119 0
0.000000 -2.864622 0
0.000000 0.000000 0
0.000000 -1.915112 0
0.000000 0.000619 0
-0.114009 2.781171 0
-0.199128 1.265995 0
-0.481123 0.779174 0
-0.632198 0.634701 0
-0.807366 0.466895 0
-0.927355 0.347948 0
-1.020798 0.229217 0
-1.071960 0.114813 0
-1.071608 -0.030826 0
-0.984424 -0.219889 0
-0.774188 -0.438321 0
-0.390597 -0.735988 0
-0.035444 -1.543258 0
0.189623 -3.182159 0
0.519175 -5.549085 0
0.843814 -8.414530 0
0.241745 0.000532 0
0.088675 4.968876 0
1.063077 0.000000 0
1.062330 0.116420 0
0.000000 -0.000057 0
-0.174779 -0.404747 0
-0.126578 -0.177045 0
-0.112540 0.021262 0
0.007186 -0.131151 0
-0.064507 -0.050107 0
-0.046878 -0.021171 0
-0.032875 -0.019806 0
-0.016823 -0.015054 0
-0.002034 -0.021680 0
0.010044 -0.036965 0
0.025779 -0.052643 0
0.030921 -0.067482 0
0.032703 -0.060836 0
0.003388 -0.045904 0
-0.099502 -0.019311 0
-0.188182 -0.031316 0
-0.170549 -0.122309 0
-0.200801 -0.126734 0
-0.264513 -0.041217 0
-0.262550 -0.003990 0
1.000000 -0.012291 0
1.000331 -0.043334 0
1.008668 -0.080243 0
1.022924 -0.118865 0
1.042421 -0.163743 0
1.067463 -0.218161 0
1.098935 -0.285865 0
1.137591 -0.371833 0
1.183819 -0.483206 0
1.237277 -0.630943 0
1.293013 -0.827726 0
1.352391 -1.098091 0
1.361903 -1.471560 0
1.261826 -1.919324 0
0.887008 -2.436657 0
0.000000 -0.000049 0
0.000000 1.360691 0
0.000000 0.000000 0
0.000000 1.383286 0
0.000000 -0.001183 0
0.626593 -1.965654 0
0.799967 -0.848633 0
1.012598 -0.454943 0
1.182841 -0.357941 0
1.365606 -0.316696 0
1.576356 -0.221482 0
1.717181 -0.049256 0
1.763765 0.168076 0
1.716524 0.409445 0
1.582807 0.664273 0
1.477707 1.206721 0
1.507847 2.212412 0
1.479806 3.499764 0
1.235976 4.767955 0
0.712654 5.799281 0
0.000000 0.000188 0
0.000000 -3.128286 0
0.000000 0.000000 0
0.000000 -1.943364 0
0.000000 0.000533 0
-0.073117 2.837353 0
-0.158838 1.405333 0
-0.427447 0.920689 0
-0.543687 0.714292 0
-0.728666 0.546390 0
-0.833588 0.422537 0
-0.971192 0.290363 0
-1.035088 0.140634 0
-1.057060 -0.039228 0
-0.996487 -0.282484 0
-0.810154 -0.604896 0
-0.418244 -1.015215 0
-0.030959 -1.769507 0
0.169991 -3.323857 0
0.352526 -5.673849 0
0.449045 -8.278429 0
0.000000 0.000456 0
0.000000 4.781064 0
0.000000 0.000000 0
0.000000 0.270133 0
0.000000 0.000422 0
-0.069202 -0.058377 0
-0.167992 -0.125270 0
-0.114757 -0.256238 0
-0.104897 0.015809 0
-0.167434 -0.079265 0
-0.142024 -0.027445 0
-0.143656 -0.021366 0
-0.142924 -0.016160 0
-0.147620 -0.019782 0
-0.163237 -0.031609 0
-0.198185 -0.046653 0
-0.251330 -0.051346 0
-0.351825 -0.029401 0
-0.474276 0.022056 0
-0.619693 0.060259 0
-0.697992 0.011372 0
-0.714994 -0.076964 0
-0.851375 -0.073401 0
-0.922839 -0.020741 0
-0.921353 -0.005468 0
1.000000 -0.012507 0
0.999905 -0.045485 0
1.004689 -0.086143 0
1.015296 -0.128350 0
1.030204 -0.176227 0
1.048520 -0.233741 0
1.070801 -0.304848 0
1.097176 -0.394127 0
1.126480 -0.508258 0
1.157596 -0.658887 0
1.188635 -0.850620 0
1.196985 -1.098679 0
1.157513 -1.415754 0
1.000843 -1.762489 0
0.647410 -2.086863 0
0.000000 -0.000142 0
0.000000 1.119320 0
0.000000 0.000000 0
0.000000 1.532581 0
0.000000 -0.001157 0
0.373330 -2.152201 0
0.520647 -0.972985 0
0.738171 -0.603826 0
0.883385 -0.477296 0
1.055580 -0.443549 0
1.260069 -0.336527 0
1.386404 -0.111194 0
1.436139 0.166273 0
1.408685 0.463982 0
1.301410 0.762115 0
1.151610 1.265994 0
1.127414 2.223841 0
1.097130 3.564940 0
0.926181 4.976211 0
0.525689 6.144596 0
0.000000 0.000264 0
0.000000 -3.320585 0
0.000000 0.000000 0
0.000000 -1.962116 0
0.000000 0.000436 0
-0.048113 2.882860 0
-0.127135 1.492784 0
-0.298543 1.025496 0
-0.470653 0.827500 0
-0.612446 0.652450 0
-0.746376 0.503183 0
-0.882478 0.358195 0
-0.964353 0.169787 0
-0.955194 -0.055512 0
-0.847634 -0.377891 0
-0.618291 -0.808379 0
-0.336425 -1.234654 0
-0.031017 -1.919710 0
0.128609 -3.427572 0
0.234532 -5.727661 0
0.246026 -8.188895 0
0.000000 0.000334 0
0.000000 4.681281 0
0.000000 0.000000 0
0.000000 0.072265 0
0.000000 0.000102 0
0.033201 -0.297198 0
-0.001056 -0.147871 0
-0.200126 -0.019100 0
-0.130484 -0.097419 0
-0.165083 -0.026327 0
-0.167310 -0.036370 0
-0.154272 -0.019211 0
-0.146524 -0.012499 0
-0.143263 -0.008661 0
-0.174953 -0.004584 0
-0.246503 0.003755 0
-0.329585 0.030866 0
-0.413315 0.081868 0
-0.492198 0.125550 0
-0.518269 0.123885 0
-0.526877 0.029695 0
-0.430982 -0.024125 0
-0.444897 0.006306 0
-0.593382 0.003587 0
-0.593228 -0.005927 0
1.000000 -0.012207 0
0.998802 -0.046304 0
1.001586 -0.090076 0
1.007483 -0.135178 0
1.017462 -0.184989 0
1.029263 -0.244127 0
1.042916 -0.316987 0
1.058235 -0.407450 0
1.073148 -0.521858 0
1.086151 -0.670705 0
1.090682 -0.852918 0
1.070218 -1.078156 0
0.998816 -1.346013 0
0.816057 -1.592841 0
0.478221 -1.796100 0
0.000000 0.000030 0
0.000000 0.946419 0
0.000000 0.000000 0
0.000000 1.622273 0
0.000000 -0.001103 0
0.230828 -2.298835 0
0.379483 -1.082114 0
0.555659 -0.687077 0
0.660866 -0.561065 0
0.740823 -0.557756 0
0.843784 -0.433191 0
0.999511 -0.161923 0
1.109161 0.153834 0
1.077988 0.495690 0
0.999348 0.828818 0
0.890437 1.318096 0
0.849268 2.247297 0
0.822361 3.628571 0
0.673695 5.133695 0
0.391380 6.392054 0
0.000000 0.000270 0
0.000000 -3.464654 0
0.000000 0.000000 0
0.000000 -1.974388 0
0.000000 0.000325 0
-0.029336 2.918752 0
-0.096429 1.565627 0
-0.234206 1.140559 0
-0.405075 0.915208 0
-0.481440 0.722871 0
-0.657164 0.595376 0
-0.731405 0.429887 0
-0.799465 0.187191 0
-0.762052 -0.113910 0
-0.639789 -0.498084 0
-0.405723 -0.932052 0
-0.264310 -1.391052 0
-0.005447 -2.067110 0
0.109517 -3.493790 0
0.166684 -5.748978 0
0.149346 -8.128311 0
0.000000 0.000245 0
0.000000 4.623387 0
0.000000 0.000000 0
0.000000 0.291189 0
0.000000 0.000254 0
-0.057045 -0.057667 0
-0.140287 0.024078 0
-0.042434 -0.173385 0
-0.156172 -0.006600 0
-0.125546 -0.055678 0
-0.126356 -0.034346 0
-0.107243 -0.034651 0
-0.090190 -0.023187 0
-0.076387 -0.001569 0
-0.090524 0.034484 0
-0.123991 0.052329 0
-0.158144 0.055432 0
-0.162609 0.074690 0
-0.127715 0.089246 0
-0.057528 0.082472 0
0.065738 -0.044474 0
-0.108004 -0.129412 0
-0.187916 0.030553 0
-0.046643 0.074209 0
-0.048235 -0.005702 0
1.000000 -0.011718 0
0.999003 -0.046469 0
1.000194 -0.091682 0
1.000860 -0.138494 0
1.005075 -0.190149 0
1.010889 -0.250014 0
1.017506 -0.323373 0
1.023914 -0.413458 0
1.027971 -0.526107 0
1.028420 -0.670092 0
1.002702 -0.840405 0
0.971316 -1.039868 0
0.863597 -1.253074 0
0.662981 -1.429291 0
0.373541 -1.564569 0
0.000000 0.000068 0
0.000000 0.813459 0
0.000000 0.000000 0
0.000000 1.680513 0
0.000000 -0.000931 0
0.149719 -2.395037 0
0.255784 -1.180859 0
0.361797 -0.783893 0
0.453458 -0.595783 0
0.523210 -0.560599 0
0.506385 -0.502069 0
0.635367 -0.281017 0
0.757634 0.116065 0
0.779036 0.534280 0
0.736224 0.882166 0
0.647992 1.362063 0
0.621670 2.267427 0
0.610791 3.677325 0
0.505609 5.252057 0
0.293630 6.575778 0
0.000000 0.000176 0
0.000000 -3.571165 0
0.000000 0.000000 0
0.000000 -1.981130 0
0.000000 0.000220 0
-0.011705 2.944608 0
-0.061024 1.623919 0
-0.158335 1.223048 0
-0.247069 0.985747 0
-0.361224 0.813806 0
-0.461237 0.663178 0
-0.544965 0.449286 0
-0.577029 0.189419 0
-0.559327 -0.157687 0
-0.461311 -0.605924 0
-0.237540 -1.048667 0
-0.107081 -1.490813 0
0.036360 -2.158941 0
0.112019 -3.537717 0
0.138302 -5.753133 0
0.105862 -8.082199 0
0.000000 0.000269 0
0.000000 4.585626 0
0.000000 0.000000 0
0.000000 0.035585 0
0.000000 -0.000044 0
-0.117199 -0.207381 0
0.076431 -0.157203 0
-0.126591 -0.008915 0
-0.060473 -0.044209 0
-0.081239 -0.045390 0
-0.071874 -0.048066 0
-0.090716 -0.042338 0
-0.110769 -0.032227 0
-0.130128 -0.008428 0
-0.116915 0.025900 0
-0.074988 0.047050 0
-0.055843 0.055600 0
-0.055266 0.062413 0
-0.052417 0.058317 0
-0.031198 0.000094 0
0.058969 0.062018 0
-0.138644 0.138232 0
-0.347523 -0.032947 0
-0.122840 -0.085790 0
-0.124228 -0.003903 0
1.000000 -0.011546 0
0.999621 -0.046396 0
0.998185 -0.091247 0
0.997271 -0.138284 0
0.996481 -0.191391 0
0.997290 -0.252065 0
0.998463 -0.325306 0
0.996608 -0.414130 0
0.994271 -0.524725 0
0.975869 -0.654516 0
0.935113 -0.816354 0
0.860688 -0.989111 0
0.745996 -1.148661 0
0.556435 -1.279188 0
0.304064 -1.371775 0
0.000000 0.000088 0
0.000000 0.707402 0
0.000000 0.000000 0
0.000000 1.718425 0
0.000000 -0.000748 0
0.097323 -2.462504 0
0.172720 -1.217826 0
0.221527 -0.813571 0
0.242213 -0.664352 0
0.299758 -0.591611 0
0.303890 -0.504954 0
0.312948 -0.322704 0
0.372107 0.061904 0
0.491266 0.509410 0
0.457057 0.912704 0
0.417887 1.391429 0
0.431041 2.271124 0
0.450190 3.702868 0
0.387760 5.336696 0
0.228212 6.715662 0
0.000000 0.000042 0
0.000000 -3.652814 0
0.000000 0.000000 0
0.000000 -1.982089 0
0.000000 0.000139 0
0.007540 2.957840 0
-0.017369 1.659488 0
-0.066847 1.259646 0
-0.092805 1.045074 0
-0.174455 0.859957 0
-0.228582 0.712989 0
-0.309823 0.504011 0
-0.313375 0.196401 0
-0.289521 -0.187951 0
-0.182411 -0.704010 0
-0.084086 -1.158741 0
0.038274 -1.566329 0
0.105382 -2.207316 0
0.136080 -3.559015 0
0.138933 -5.745020 0
0.093428 -8.039780 0
0.000000 0.000414 0
0.000000 4.555795 0
0.000000 0.000000 0
0.000000 0.215496 0
0.000000 -0.000407 0
0.032029 -0.106549 0
-0.116973 0.030107 0
-0.047736 -0.085748 0
-0.045715 -0.035606 0