# vtk DataFile Version 2.0
generated by CFD-lab course output (written by Tobias Neckel) 
ASCII

DATASET STRUCTURED_GRID
DIMENSIONS  81 26 1 
POINTS 2106 float

0.000000 0.000000 0
0.125000 0.000000 0
0.250000 0.000000 0
0.375000 0.000000 0
0.500000 0.000000 0
0.625000 0.000000 0
0.750000 0.000000 0
0.875000 0.000000 0
1.000000 0.000000 0
1.125000 0.000000 0
1.250000 0.000000 0
1.375000 0.000000 0
1.500000 0.000000 0
1.625000 0.000000 0
1.750000 0.000000 0
1.875000 0.000000 0
2.000000 0.000000 0
2.125000 0.000000 0
2.250000 0.000000 0
2.375000 0.000000 0
2.500000 0.000000 0
2.625000 0.000000 0
2.750000 0.000000 0
2.875000 0.000000 0
3.000000 0.000000 0
3.125000 0.000000 0
3.250000 0.000000 0
3.375000 0.000000 0
3.500000 0.000000 0
3.625000 0.000000 0
3.750000 0.000000 0
3.875000 0.000000 0
4.000000 0.000000 0
4.125000 0.000000 0
4.250000 0.000000 0
4.375000 0.000000 0
4.500000 0.000000 0
4.625000 0.000000 0
4.750000 0.000000 0
4.875000 0.000000 0
5.000000 0.000000 0
5.125000 0.000000 0
5.250000 0.000000 0
5.375000 0.000000 0
5.500000 0.000000 0
5.625000 0.000000 0
5.750000 0.000000 0
5.875000 0.000000 0
6.000000 0.000000 0
6.125000 0.000000 0
6.250000 0.000000 0
6.375000 0.000000 0
6.500000 0.000000 0
6.625000 0.000000 0
6.750000 0.000000 0
6.875000 0.000000 0
7.000000 0.000000 0
7.125000 0.000000 0
7.250000 0.000000 0
7.375000 0.000000 0
7.500000 0.000000 0
7.625000 0.000000 0
7.750000 0.000000 0
7.875000 0.000000 0
8.000000 0.000000 0
8.125000 0.000000 0
8.250000 0.000000 0
8.375000 0.000000 0
8.500000 0.000000 0
8.625000 0.000000 0
8.750000 0.000000 0
8.875000 0.000000 0
9.000000 0.000000 0
9.125000 0.000000 0
9.250000 0.000000 0
9.375000 0.000000 0
9.500000 0.000000 0
9.625000 0.000000 0
9.750000 0.000000 0
9.875000 0.000000 0
10.000000 0.000000 0
0.000000 0.080000 0
0.125000 0.080000 0
0.250000 0.080000 0
0.375000 0.080000 0
0.500000 0.080000 0
0.625000 0.080000 0
0.750000 0.080000 0
0.875000 0.080000 0
1.000000 0.080000 0
1.125000 0.080000 0
1.250000 0.080000 0
1.375000 0.080000 0
1.500000 0.080000 0
1.625000 0.080000 0
1.750000 0.080000 0
1.875000 0.080000 0
2.000000 0.080000 0
2.125000 0.080000 0
2.250000 0.080000 0
2.375000 0.080000 0
2.500000 0.080000 0
2.625000 0.080000 0
2.750000 0.080000 0
2.875000 0.080000 0
3.000000 0.080000 0
3.125000 0.080000 0
3.250000 0.080000 0
3.375000 0.080000 0
3.500000 0.080000 0
3.625000 0.080000 0
3.750000 0.080000 0
3.875000 0.080000 0
4.000000 0.080000 0
4.125000 0.080000 0
4.250000 0.080000 0
4.375000 0.080000 0
4.500000 0.080000 0
4.625000 0.080000 0
4.750000 0.080000 0
4.875000 0.080000 0
5.000000 0.080000 0
5.125000 0.080000 0
5.250000 0.080000 0
5.375000 0.080000 0
5.500000 0.080000 0
5.625000 0.080000 0
5.750000 0.080000 0
5.875000 0.080000 0
6.000000 0.080000 0
6.125000 0.080000 0
6.250000 0.080000 0
6.375000 0.080000 0
6.500000 0.080000 0
6.625000 0.080000 0
6.750000 0.080000 0
6.875000 0.080000 0
7.000000 0.080000 0
7.125000 0.080000 0
7.250000 0.080000 0
7.375000 0.080000 0
7.500000 0.080000 0
7.625000 0.080000 0
7.750000 0.080000 0
7.875000 0.080000 0
8.000000 0.080000 0
8.125000 0.080000 0
8.250000 0.080000 0
8.375000 0.080000 0
8.500000 0.080000 0
8.625000 0.080000 0
8.750000 0.080000 0
8.875000 0.080000 0
9.000000 0.080000 0
9.125000 0.080000 0
9.250000 0.080000 0
9.375000 0.080000 0
9.500000 0.080000 0
9.625000 0.080000 0
9.750000 0.080000 0
9.875000 0.080000 0
10.000000 0.080000 0
0.000000 0.160000 0
0.125000 0.160000 0
0.250000 0.160000 0
0.375000 0.160000 0
0.500000 0.160000 0
0.625000 0.160000 0
0.750000 0.160000 0
0.875000 0.160000 0
1.000000 0.160000 0
1.125000 0.160000 0
1.250000 0.160000 0
1.375000 0.160000 0
1.500000 0.160000 0
1.625000 0.160000 0
1.750000 0.160000 0
1.875000 0.160000 0
2.000000 0.160000 0
2.125000 0.160000 0
2.250000 0.160000 0
2.375000 0.160000 0
2.500000 0.160000 0
2.625000 0.160000 0
2.750000 0.160000 0
2.875000 0.160000 0
3.000000 0.160000 0
3.125000 0.160000 0
3.250000 0.160000 0
3.375000 0.160000 0
3.500000 0.160000 0
3.625000 0.160000 0
3.750000 0.160000 0
3.875000 0.160000 0
4.000000 0.160000 0
4.125000 0.160000 0
4.250000 0.160000 0
4.375000 0.160000 0
4.500000 0.160000 0
4.625000 0.160000 0
4.750000 0.160000 0
4.875000 0.160000 0
5.000000 0.160000 0
5.125000 0.160000 0
5.250000 0.160000 0
5.375000 0.160000 0
5.500000 0.160000 0
5.625000 0.160000 0
5.750000 0.160000 0
5.875000 0.160000 0
6.000000 0.160000 0
6.125000 0.160000 0
6.250000 0.160000 0
6.375000 0.160000 0
6.500000 0.160000 0
6.625000 0.160000 0
6.750000 0.160000 0
6.875000 0.160000 0
7.000000 0.160000 0
7.125000 0.160000 0
7.250000 0.160000 0
7.375000 0.160000 0
7.500000 0.160000 0
7.625000 0.160000 0
7.750000 0.160000 0
7.875000 0.160000 0
8.000000 0.160000 0
8.125000 0.160000 0
8.250000 0.160000 0
8.375000 0.160000 0
8.500000 0.160000 0
8.625000 0.160000 0
8.750000 0.160000 0
8.875000 0.160000 0
9.000000 0.160000 0
9.125000 0.160000 0
9.250000 0.160000 0
9.375000 0.160000 0
9.500000 0.160000 0
9.625000 0.160000 0
9.750000 0.160000 0
9.875000 0.160000 0
10.000000 0.160000 0
0.000000 0.240000 0
0.125000 0.240000 0
0.250000 0.240000 0
0.375000 0.240000 0
0.500000 0.240000 0
0.625000 0.240000 0
0.750000 0.240000 0
0.875000 0.240000 0
1.000000 0.240000 0
1.125000 0.240000 0
1.250000 0.240000 0
1.375000 0.240000 0
1.500000 0.240000 0
1.625000 0.240000 0
1.750000 0.240000 0
1.875000 0.240000 0
2.000000 0.240000 0
2.125000 0.240000 0
2.250000 0.240000 0
2.375000 0.240000 0
2.500000 0.240000 0
2.625000 0.240000 0
2.750000 0.240000 0
2.875000 0.240000 0
3.000000 0.240000 0
3.125000 0.240000 0
3.250000 0.240000 0
3.375000 0.240000 0
3.500000 0.240000 0
3.625000 0.240000 0
3.750000 0.240000 0
3.875000 0.240000 0
4.000000 0.240000 0
4.125000 0.240000 0
4.250000 0.240000 0
4.375000 0.240000 0
4.500000 0.240000 0
4.625000 0.240000 0
4.750000 0.240000 0
4.875000 0.240000 0
5.000000 0.240000 0
5.125000 0.240000 0
5.250000 0.240000 0
5.375000 0.240000 0
5.500000 0.240000 0
5.625000 0.240000 0
5.750000 0.240000 0
5.875000 0.240000 0
6.000000 0.240000 0
6.125000 0.240000 0
6.250000 0.240000 0
6.375000 0.240000 0
6.500000 0.240000 0
6.625000 0.240000 0
6.750000 0.240000 0
6.875000 0.240000 0
7.000000 0.240000 0
7.125000 0.240000 0
7.250000 0.240000 0
7.375000 0.240000 0
7.500000 0.240000 0
7.625000 0.240000 0
7.750000 0.240000 0
7.875000 0.240000 0
8.000000 0.240000 0
8.125000 0.240000 0
8.250000 0.240000 0
8.375000 0.240000 0
8.500000 0.240000 0
8.625000 0.240000 0
8.750000 0.240000 0
8.875000 0.240000 0
9.000000 0.240000 0
9.125000 0.240000 0
9.250000 0.240000 0
9.375000 0.240000 0
9.500000 0.240000 0
9.625000 0.240000 0
9.750000 0.240000 0
9.875000 0.240000 0
10.000000 0.240000 0
0.000000 0.320000 0
0.125000 0.320000 0
0.250000 0.320000 0
0.375000 0.320000 0
0.500000 0.320000 0
0.625000 0.320000 0
0.750000 0.320000 0
0.875000 0.320000 0
1.000000 0.320000 0
1.125000 0.320000 0
1.250000 0.320000 0
1.375000 0.320000 0
1.500000 0.320000 0
1.625000 0.320000 0
1.750000 0.320000 0
1.875000 0.320000 0
2.000000 0.320000 0
2.125000 0.320000 0
2.250000 0.320000 0
2.375000 0.320000 0
2.500000 0.320000 0
2.625000 0.320000 0
2.750000 0.320000 0
2.875000 0.320000 0
3.000000 0.320000 0
3.125000 0.320000 0
3.250000 0.320000 0
3.375000 0.320000 0
3.500000 0.320000 0
3.625000 0.320000 0
3.750000 0.320000 0
3.875000 0.320000 0
4.000000 0.320000 0
4.125000 0.320000 0
4.250000 0.320000 0
4.375000 0.320000 0
4.500000 0.320000 0
4.625000 0.320000 0
4.750000 0.320000 0
4.875000 0.320000 0
5.000000 0.320000 0
5.125000 0.320000 0
5.250000 0.320000 0
5.375000 0.320000 0
5.500000 0.320000 0
5.625000 0.320000 0
5.750000 0.320000 0
5.875000 0.320000 0
6.000000 0.320000 0
6.125000 0.320000 0
6.250000 0.320000 0
6.375000 0.320000 0
6.500000 0.320000 0
6.625000 0.320000 0
6.750000 0.320000 0
6.875000 0.320000 0
7.000000 0.320000 0
7.125000 0.320000 0
7.250000 0.320000 0
7.375000 0.320000 0
7.500000 0.320000 0
7.625000 0.320000 0
7.750000 0.320000 0
7.875000 0.320000 0
8.000000 0.320000 0
8.125000 0.320000 0
8.250000 0.320000 0
8.375000 0.320000 0
8.500000 0.320000 0
8.625000 0.320000 0
8.750000 0.320000 0
8.875000 0.320000 0
9.000000 0.320000 0
9.125000 0.320000 0
9.250000 0.320000 0
9.375000 0.320000 0
9.500000 0.320000 0
9.625000 0.320000 0
9.750000 0.320000 0
9.875000 0.320000 0
10.000000 0.320000 0
0.000000 0.400000 0
0.125000 0.400000 0
0.250000 0.400000 0
0.375000 0.400000 0
0.500000 0.400000 0
0.625000 0.400000 0
0.750000 0.400000 0
0.875000 0.400000 0
1.000000 0.400000 0
1.125000 0.400000 0
1.250000 0.400000 0
1.375000 0.400000 0
1.500000 0.400000 0
1.625000 0.400000 0
1.750000 0.400000 0
1.875000 0.400000 0
2.000000 0.400000 0
2.125000 0.400000 0
2.250000 0.400000 0
2.375000 0.400000 0
2.500000 0.400000 0
2.625000 0.400000 0
2.750000 0.400000 0
2.875000 0.400000 0
3.000000 0.400000 0
3.125000 0.400000 0
3.250000 0.400000 0
3.375000 0.400000 0
3.500000 0.400000 0
3.625000 0.400000 0
3.750000 0.400000 0
3.875000 0.400000 0
4.000000 0.400000 0
4.125000 0.400000 0
4.250000 0.400000 0
4.375000 0.400000 0
4.500000 0.400000 0
4.625000 0.400000 0
4.750000 0.400000 0
4.875000 0.400000 0
5.000000 0.400000 0
5.125000 0.400000 0
5.250000 0.400000 0
5.375000 0.400000 0
5.500000 0.400000 0
5.625000 0.400000 0
5.750000 0.400000 0
5.875000 0.400000 0
6.000000 0.400000 0
6.125000 0.400000 0
6.250000 0.400000 0
6.375000 0.400000 0
6.500000 0.400000 0
6.625000 0.400000 0
6.750000 0.400000 0
6.875000 0.400000 0
7.000000 0.400000 0
7.125000 0.400000 0
7.250000 0.400000 0
7.375000 0.400000 0
7.500000 0.400000 0
7.625000 0.400000 0
7.750000 0.400000 0
7.875000 0.400000 0
8.000000 0.400000 0
8.125000 0.400000 0
8.250000 0.400000 0
8.375000 0.400000 0
8.500000 0.400000 0
8.625000 0.400000 0
8.750000 0.400000 0
8.875000 0.400000 0
9.000000 0.400000 0
9.125000 0.400000 0
9.250000 0.400000 0
9.375000 0.400000 0
9.500000 0.400000 0
9.625000 0.400000 0
9.750000 0.400000 0
9.875000 0.400000 0
10.000000 0.400000 0
0.000000 0.480000 0
0.125000 0.480000 0
0.250000 0.480000 0
0.375000 0.480000 0
0.500000 0.480000 0
[...]
POINT_DATA 2106 

VECTORS velocity float
0.500000 0.000000 0
-0.000001 0.000000 0
-0.000001 0.000000 0
-0.000001 0.000000 0
-0.000002 0.000000 0
-0.000003 0.000000 0
-0.000004 0.000000 0
-0.000005 0.000000 0
-0.000005 0.000000 0
-0.000002 0.000000 0
0.000005 0.000000 0
0.000021 0.000000 0
0.000052 0.000000 0
0.000101 0.000000 0
0.000157 0.000000 0
0.000045 0.000000 0
-0.000550 0.000000 0
-0.000389 0.000000 0
0.000115 0.000000 0
0.000051 0.000000 0
-0.000398 0.000000 0
-0.000708 0.000000 0
-0.000790 0.000000 0
-0.000754 0.000000 0
-0.000636 0.000000 0
-0.000423 0.000000 0
-0.000013 0.000000 0
0.000702 0.000000 0
0.001604 0.000000 0
0.002709 0.000000 0
0.003322 0.000000 0
0.003098 0.000000 0
0.003662 0.000000 0
0.002209 0.000000 0
0.002206 0.000000 0
0.000000 0.000000 0
0.000000 0.000000 0
0.000000 0.000000 0
0.000000 0.000000 0
0.000000 0.000000 0
-0.000003 0.000000 0
-0.003231 0.000000 0
-0.002963 0.000000 0
-0.002687 0.000000 0
-0.002475 0.000000 0
-0.002615 0.000000 0
-0.003042 0.000000 0
-0.003601 0.000000 0
-0.004471 0.000000 0
-0.005006 0.000000 0
-0.005289 0.000000 0
-0.004894 0.000000 0
-0.003425 0.000000 0
-0.000530 0.000000 0
0.000750 0.000000 0
0.001765 0.000000 0
0.000513 0.000000 0
0.000274 0.000000 0
-0.000053 0.000000 0
-0.000945 0.000000 0
-0.001076 0.000000 0
-0.000112 0.000000 0
0.001138 0.000000 0
0.002538 0.000000 0
0.004114 0.000000 0
0.005580 0.000000 0
0.006475 0.000000 0
0.006555 0.000000 0
0.006032 0.000000 0
0.005254 0.000000 0
0.004465 0.000000 0
0.003703 0.000000 0
0.002902 0.000000 0
0.002039 0.000000 0
0.001174 0.000000 0
0.000391 0.000000 0
-0.000192 0.000000 0
-0.000497 0.000000 0
-0.000546 0.000000 0
-0.000459 0.000000 0
-0.000439 0.000000 0
1.000000 -0.001790 0
1.007226 -0.006155 0
1.022600 -0.011807 0
1.047442 -0.018555 0
1.083495 -0.026699 0
1.133183 -0.036704 0
1.199768 -0.049390 0
1.288107 -0.064634 0
1.401772 -0.086834 0
1.557081 -0.118057 0
1.767823 -0.169723 0
2.076990 -0.237702 0
2.497235 -0.336111 0
3.111955 -0.452192 0
3.927488 -0.660331 0
5.274370 -0.701906 0
6.156776 -0.471388 0
6.664379 -0.292046 0
6.983866 -0.200349 0
7.233003 -0.164109 0
7.465853 -0.145152 0
7.671440 -0.120023 0
7.831560 -0.087776 0
7.937540 -0.052785 0
7.991847 -0.019572 0
8.002953 0.010491 0
7.973160 0.048582 0
7.880339 0.110388 0
7.679368 0.203674 0
7.303375 0.345182 0
6.697000 0.508430 0
5.796736 0.670152 0
4.620521 0.859235 0
3.193304 1.020661 0
1.568253 0.968238 0
0.000000 0.001411 0
0.000000 -0.427819 0
0.000000 0.000000 0
0.000000 -0.668010 0
0.000000 0.000001 0
-1.669711 1.031772 0
-2.455589 0.524146 0
-2.933294 0.269466 0
-3.236148 0.176858 0
-3.439539 0.114555 0
-3.556760 0.075038 0
-3.606528 0.043486 0
-3.610001 0.022562 0
-3.584845 0.011504 0
-3.551142 0.006193 0
-3.511123 0.000241 0
-3.471288 -0.025454 0
-3.398669 -0.146253 0
-3.057581 -0.537153 0
-1.723747 -1.379318 0
1.259149 -2.847401 0
6.059817 -2.832681 0
8.505316 -1.370300 0
9.623559 -0.569814 0
9.982273 -0.191388 0
10.063774 -0.055452 0
10.096553 -0.017027 0
10.108241 -0.000883 0
10.106452 0.011275 0
10.087237 0.022637 0
10.053549 0.030428 0
10.013364 0.032684 0
9.976304 0.029943 0
9.948376 0.025106 0
9.929192 0.021397 0
9.913661 0.020134 0
9.896733 0.020234 0
9.877259 0.019599 0
9.857899 0.016895 0
9.842376 0.011924 0
9.834171 0.005099 0
9.837107 -0.001529 0
9.848781 -0.004929 0
9.862136 -0.003958 0
9.869962 -0.001464 0
9.871438 -0.000498 0
1.000000 -0.004561 0
1.008305 -0.014359 0
1.024819 -0.025656 0
1.050469 -0.038890 0
1.086780 -0.054791 0
1.135988 -0.074332 0
1.201261 -0.099069 0
1.286866 -0.129200 0
1.398650 -0.172060 0
1.545341 -0.234189 0
1.751879 -0.332659 0
2.031842 -0.466741 0
2.437576 -0.662294 0
3.018773 -0.915279 0
3.863301 -1.383862 0
5.372397 -1.426661 0
6.023414 -0.889522 0
6.364384 -0.529253 0
6.564007 -0.363835 0
6.741582 -0.308388 0
6.936536 -0.280515 0
7.117855 -0.233968 0
7.258783 -0.170219 0
7.348836 -0.102499 0
7.394810 -0.041779 0
7.410176 0.012045 0
7.406777 0.078558 0
7.372400 0.188112 0
7.273277 0.369342 0
7.024521 0.628801 0
6.525956 0.964334 0
5.720035 1.329032 0
4.628534 1.666282 0
3.304163 1.953537 0
1.772815 2.043800 0
0.000000 0.002540 0
0.000000 -1.001184 0
0.000000 0.000000 0
0.000000 -1.068099 0
0.000000 0.000584 0
-0.978552 1.571690 0
-1.421114 0.808782 0
-1.918530 0.499646 0
-2.191203 0.324085 0
-2.378709 0.205280 0
-2.464765 0.106961 0
-2.453783 0.034163 0
-2.374977 -0.013788 0
-2.238894 -0.037581 0
-2.047805 -0.047094 0
-1.851502 -0.051018 0
-1.657107 -0.071881 0
-1.474310 -0.264684 0
-1.505930 -1.071861 0
0.062623 -2.762618 0
2.503812 -4.981392 0
5.812683 -4.637457 0
7.155002 -2.280705 0
7.778084 -0.945162 0
7.809291 -0.281646 0
7.721253 -0.073048 0
7.726575 -0.028367 0
7.742562 -0.006244 0
7.760647 0.013534 0
7.763953 0.033950 0
7.756609 0.047370 0
7.744938 0.049529 0
7.735636 0.041684 0
7.732562 0.030244 0
7.734705 0.022310 0
7.736349 0.020866 0
7.731527 0.023390 0
7.719261 0.024946 0
7.703776 0.022417 0
7.689603 0.015278 0
7.679177 0.003464 0
7.681210 -0.009258 0
7.695364 -0.015926 0
7.714456 -0.013463 0
7.730342 -0.005861 0
7.733303 -0.001773 0
1.000000 -0.007069 0
1.007437 -0.021989 0
1.022861 -0.038764 0
1.046970 -0.058183 0
1.081081 -0.081404 0
1.127200 -0.109944 0
1.188311 -0.145924 0
1.267969 -0.190936 0
1.375664 -0.252230 0
1.508647 -0.344097 0
1.696627 -0.481056 0
1.947391 -0.676521 0
2.299206 -0.967720 0
2.815586 -1.364629 0
3.631976 -2.166623 0
5.228898 -2.084350 0
5.406451 -1.106231 0
5.372218 -0.637998 0
5.338401 -0.441728 0
5.351729 -0.402499 0
5.475764 -0.385939 0
5.619871 -0.326233 0
5.735578 -0.235576 0
5.804897 -0.139814 0
5.831959 -0.058802 0
5.837682 0.002860 0
5.865475 0.072787 0
5.918350 0.195857 0
5.995968 0.426345 0
6.069107 0.823496 0
5.797407 1.343329 0
5.193321 1.884530 0
4.268470 2.405422 0
3.078047 2.848349 0
1.678673 3.082931 0
0.000000 0.003317 0
0.000000 -1.560529 0
0.000000 0.000000 0
0.000000 -1.293357 0
0.000000 0.000966 0
-0.595490 1.941338 0
-1.058495 1.125761 0
-1.518088 0.762352 0
-1.853616 0.471402 0
-2.051044 0.289664 0
-2.125618 0.123114 0
-2.095441 -0.013949 0
-1.968007 -0.114938 0
-1.768570 -0.197856 0
-1.513050 -0.241709 0
-1.218236 -0.249777 0
-0.908470 -0.266827 0
-0.548972 -0.242976 0
-0.469622 -1.520760 0
0.854080 -3.945523 0
2.563924 -6.527409 0
5.122999 -5.809413 0
4.891632 -2.628126 0
4.911551 -0.988528 0
4.514630 -0.154985 0
4.045078 -0.002484 0
4.091267 -0.030635 0
4.130594 -0.022659 0
4.199802 -0.002385 0
4.228426 0.025251 0
4.240071 0.042628 0
4.248674 0.046137 0
4.269279 0.037895 0
4.308045 0.025733 0
4.357807 0.019004 0
4.399601 0.022198 0
4.412050 0.031201 0
4.383955 0.037391 0
4.321616 0.035908 0
4.242662 0.027698 0
4.162661 0.010501 0
4.100709 -0.011858 0
4.095296 -0.026176 0
4.127194 -0.026313 0
4.155913 -0.013494 0
4.158565 -0.004318 0
1.000000 -0.009284 0
1.006336 -0.028940 0
1.020454 -0.050930 0
1.042580 -0.076123 0
1.073826 -0.106111 0
1.115918 -0.142932 0
1.171380 -0.189134 0
1.243601 -0.249079 0
1.340122 -0.326067 0
1.459637 -0.439578 0
1.620377 -0.613428 0
1.826490 -0.852364 0
2.093952 -1.217912 0
2.475584 -1.768224 0
3.103914 -2.928354 0
4.369757 -2.562297 0
3.661473 -0.981219 0
3.042159 -0.485673 0
2.664645 -0.350693 0
2.292836 -0.396271 0
2.948594 -0.452098 0
3.356991 -0.400221 0
3.594062 -0.288608 0
3.701041 -0.164155 0
3.666777 -0.062733 0
3.508645 -0.009377 0
3.288347 0.026959 0
3.224013 0.104625 0
3.445149 0.272886 0
3.948442 0.755908 0
4.289032 1.524865 0
4.179009 2.307579 0
3.596577 3.020085 0
2.648833 3.611036 0
1.476339 4.013778 0
0.000000 0.002383 0
0.000000 -2.075707 0
0.000000 0.000000 0
0.000000 -1.449227 0
0.000000 0.000608 0
-0.434565 2.249180 0
-0.919105 1.399274 0
-1.270520 1.008553 0
-1.648323 0.665206 0
-1.825670 0.379390 0
-1.884368 0.135405 0
-1.838633 -0.066678 0
-1.717868 -0.222956 0
-1.539836 -0.328724 0
-1.333758 -0.399278 0
-1.077688 -0.437920 0
-0.780847 -0.500181 0
-0.501394 -0.545517 0
0.217696 -1.969784 0
0.984258 -4.704058 0
2.186484 -7.713470 0
3.862742 -6.127160 0
1.630889 -2.145347 0
0.351180 -0.703850 0
0.086361 0.272927 0
0.149949 0.197934 0
0.965994 -0.083067 0
0.406888 -0.075675 0
1.113029 -0.049048 0
1.032269 0.008208 0
1.090696 0.034442 0
1.140816 0.030866 0
1.201854 0.003718 0
1.271710 -0.026383 0
1.345311 -0.036255 0
1.409882 -0.013819 0
1.449200 0.033434 0
1.454467 0.082854 0
1.425419 0.112876 0
1.384419 0.117040 0
1.325948 0.094345 0
1.284736 0.033887 0
1.350477 -0.032846 0
1.470418 -0.052227 0
1.509774 -0.025907 0
1.509978 -0.005259 0
1.000000 -0.011088 0
1.004629 -0.035029 0
1.017366 -0.061933 0
1.037057 -0.092313 0
1.064732 -0.128313 0
1.101781 -0.172351 0
1.150120 -0.227613 0
1.212730 -0.298903 0
1.292381 -0.390466 0
1.398440 -0.523432 0
1.526694 -0.715814 0
1.655225 -0.979581 0
1.843296 -1.383112 0
2.053200 -2.010977 0
2.309391 -3.378866 0
2.001844 -2.441160 0
-0.008005 -0.256541 0
-0.000621 0.000000 0
0.001286 0.037867 0
0.098266 -0.584198 0
1.337391 -1.066970 0
1.923116 -0.739304 0
2.362299 -0.455739 0
2.546269 -0.186323 0
2.534188 0.064361 0
2.329223 0.245084 0
2.008124 0.254980 0
1.758994 0.095532 0
1.607354 -0.037261 0
1.843194 0.283439 0
2.669385 1.195795 0
2.980975 2.327730 0
2.792701 3.384762 0
2.151131 4.205330 0
1.199559 4.778213 0
0.000000 0.002714 0
0.000000 -2.506002 0
0.000000 0.000000 0
0.000000 -1.572607 0
0.000000 -0.000123 0
-0.360411 2.529619 0
-0.813011 1.660801 0
-1.145825 1.229081 0
-1.465271 0.826727 0
-1.616565 0.440762 0
-1.656098 0.131440 0
-1.594560 -0.120480 0
-1.477516 -0.306138 0
-1.305769 -0.443658 0
-1.117422 -0.537454 0
-0.868764 -0.603610 0
-0.621991 -0.635625 0
-0.362470 -0.882014 0
0.312139 -2.471548 0
0.873405 -5.205518 0
1.527931 -8.369610 0
1.764133 -5.453802 0
0.000144 -0.380696 0
0.002905 0.000000 0
0.000904 -0.026167 0
-0.769399 -0.565418 0
-0.587834 -0.195045 0
-0.234936 -0.116730 0
-0.206211 -0.402598 0
-0.082658 0.039575 0
0.000700 -0.026812 0
0.080078 -0.024974 0
0.152331 -0.045846 0
0.202396 -0.066049 0
0.237299 -0.069396 0
0.272717 -0.044260 0
0.315565 0.002697 0
0.369519 0.052641 0
0.433315 0.080769 0
0.483002 0.091391 0
0.551685 0.074329 0
0.581219 -0.027526 0
0.658002 -0.144982 0
0.813578 -0.128233 0
0.887185 -0.038782 0
0.887191 -0.004624 0
1.000000 -0.012210 0
1.001595 -0.040004 0
1.013456 -0.071656 0
1.030330 -0.106410 0
1.053945 -0.147507 0
1.085242 -0.197553 0
1.125517 -0.260114 0
1.176534 -0.340098 0
1.239985 -0.444893 0
1.322080 -0.589511 0
1.408285 -0.777742 0
1.497465 -1.054962 0
1.593350 -1.472588 0
1.634453 -2.066497 0
1.450868 -2.895459 0
0.164186 0.000140 0
-1.186647 1.687274 0
-0.705992 0.000000 0
-0.418513 1.007592 0
0.000000 0.001738 0
1.011136 -1.604452 0
1.519876 -1.056134 0
1.948712 -0.687398 0
2.158524 -0.274135 0
2.226693 0.076204 0
2.174931 0.327332 0
2.040457 0.391934 0
1.766200 0.361146 0
1.410714 0.219026 0
0.876777 0.076236 0
1.610211 0.796714 0
2.010900 2.228686 0
2.047448 3.551214 0
1.671635 4.630675 0
0.945321 5.390530 0
0.000000 0.002706 0
0.000000 -2.843115 0
0.000000 0.000000 0
0.000000 -1.681401 0
0.000000 -0.000863 0
-0.312071 2.769561 0
-0.683810 1.901969 0
-1.025644 1.426029 0
-1.234219 0.966509 0
-1.419478 0.501549 0
-1.439464 0.121351 0
-1.363869 -0.180941 0
-1.246473 -0.407753 0
-1.069761 -0.559155 0
-0.872451 -0.678932 0
-0.685734 -0.754966 0
-0.415149 -0.824180 0
-0.191437 -1.143330 0
0.265570 -2.760714 0
0.626063 -5.482135 0
0.884187 -8.283507 0
0.243646 -0.000564 0
0.098845 4.860767 0
1.239661 0.000000 0
1.199347 0.179096 0
0.000000 0.001726 0
-0.314563 -0.435798 0
0.041924 -0.319883 0
-0.316332 -0.146476 0
-0.131215 -0.124185 0
-0.070506 -0.069678 0
-0.014301 -0.066147 0
0.025658 -0.074535 0
0.044837 -0.080732 0
0.050831 -0.081230 0
0.058621 -0.063879 0
0.077823 -0.028489 0
0.115376 0.007525 0
0.163616 0.040278 0
0.186610 0.041314 0
0.222740 0.031517 0
0.215612 -0.034126 0
0.206472 -0.181525 0
0.291470 -0.198873 0
0.366395 -0.072989 0
0.367694 -0.005282 0
1.000000 -0.012072 0
0.999475 -0.043592 0
1.009367 -0.080296 0
1.023066 -0.118199 0
1.042335 -0.163429 0
1.067440 -0.218129 0
1.098922 -0.286013 0
1.137539 -0.372136 0
1.183805 -0.483588 0
1.237075 -0.631116 0
1.291616 -0.828033 0
1.349976 -1.097995 0
1.359043 -1.470756 0
1.260756 -1.919761 0
0.886297 -2.437869 0
0.000000 0.000123 0
0.000000 1.361251 0
0.000000 0.000000 0
0.000000 1.255441 0
0.000000 0.001796 0
0.659145 -2.024129 0
1.170981 -1.339325 0
1.490438 -0.864446 0
1.669497 -0.364202 0
1.723129 0.053889 0
1.705447 0.364303 0
1.589038 0.516596 0
1.354437 0.498596 0
1.199193 0.531998 0
0.783664 0.155790 0
0.864894 0.469984 0
1.361832 2.047926 0
1.447935 3.601920 0
1.235132 4.910720 0
0.715301 5.848087 0
0.000000 0.002492 0
0.000000 -3.111244 0
0.000000 0.000000 0
0.000000 -1.773518 0
0.000000 -0.001270 0
-0.257772 2.967311 0
-0.570319 2.117517 0
-0.881274 1.581372 0
-1.044526 1.078810 0
-1.199388 0.572148 0
-1.203598 0.095880 0
-1.113748 -0.243965 0
-0.985710 -0.494338 0
-0.847858 -0.683002 0
-0.679204 -0.783202 0
-0.498140 -0.896254 0
-0.282434 -0.951947 0
-0.178101 -1.317645 0
0.190563 -2.994718 0
0.405819 -5.601403 0
0.476771 -8.124833 0
0.000000 -0.000796 0
0.000000 4.662348 0
0.000000 0.000000 0
0.000000 0.349320 0
0.000000 0.000712 0
-0.161720 -0.232539 0
-0.129934 -0.115568 0
-0.185813 -0.291759 0
-0.176615 -0.117723 0
-0.150519 -0.101606 0
-0.120434 -0.086488 0
-0.109257 -0.083664 0
-0.109660 -0.082129 0
-0.123851 -0.078186 0
-0.137704 -0.061504 0
-0.147987 -0.033596 0
-0.146805 -0.002236 0
-0.142623 0.035209 0
-0.148881 0.053582 0
-0.200335 0.055799 0
-0.234829 -0.017084 0
-0.283404 -0.193500 0
-0.341944 -0.230553 0
-0.379937 -0.087535 0
-0.378904 -0.006289 0
1.000000 -0.011838 0
0.999394 -0.045949 0
1.005056 -0.086726 0
1.015319 -0.127482 0
1.029932 -0.175879 0
1.048508 -0.233741 0
1.070888 -0.304950 0
1.097253 -0.394395 0
1.126718 -0.508569 0
1.157837 -0.658483 0
1.186969 -0.849972 0
1.193191 -1.098088 0
1.154978 -1.415460 0
0.998997 -1.763913 0
0.646304 -2.088547 0
0.000000 0.000234 0
0.000000 1.120125 0
0.000000 0.000000 0
0.000000 1.429402 0
0.000000 0.001732 0
0.457914 -2.353828 0
0.865935 -1.588133 0
1.156207 -1.006419 0
1.295678 -0.423029 0
1.318912 0.053224 0
1.290811 0.413179 0
1.189396 0.616609 0
1.022739 0.610676 0
0.836653 0.584349 0
0.827390 0.290216 0
0.462819 0.426715 0
0.923886 1.855568 0
1.015005 3.632331 0
0.884509 5.099590 0
0.510761 6.181043 0
0.000000 0.002508 0
0.000000 -3.301120 0
0.000000 0.000000 0
0.000000 -1.847329 0
0.000000 -0.001779 0
-0.206571 3.134618 0
-0.473102 2.301040 0
-0.711863 1.729550 0
-0.886572 1.170131 0
-0.977134 0.603384 0
-0.968310 0.066571 0
-0.880400 -0.320360 0
-0.755652 -0.577893 0
-0.638239 -0.755289 0
-0.494708 -0.902722 0
-0.338251 -1.008870 0
-0.208271 -1.028975 0
-0.090980 -1.446018 0
0.116308 -3.134394 0
0.259208 -5.665278 0
0.263005 -8.023753 0
0.000000 -0.001010 0
0.000000 4.555172 0
0.000000 0.000000 0
0.000000 0.073918 0
0.000000 0.000088 0
-0.109629 -0.352585 0
-0.025167 -0.304433 0
-0.200906 -0.116569 0
-0.208030 -0.146743 0
-0.203524 -0.105604 0
-0.196520 -0.092524 0
-0.194824 -0.081399 0
-0.201582 -0.071361 0
-0.213327 -0.063252 0
-0.220202 -0.048401 0
-0.235490 -0.022634 0
-0.257830 0.004123 0
-0.277137 0.041637 0
-0.284207 0.078280 0
-0.293847 0.086554 0
-0.269449 0.019069 0
-0.315724 -0.112941 0
-0.414231 -0.137062 0
-0.483209 -0.049304 0
-0.484110 -0.006593 0
1.000000 -0.011648 0
0.999329 -0.046777 0
1.000905 -0.090461 0
1.007876 -0.134092 0
1.017160 -0.184642 0
1.029166 -0.244314 0
1.043018 -0.317182 0
1.058546 -0.407839 0
1.073921 -0.522335 0
1.087691 -0.669649 0
1.089888 -0.850632 0
1.065292 -1.077493 0
0.998730 -1.346445 0
0.813492 -1.594182 0
0.475279 -1.798483 0
0.000000 0.000094 0
0.000000 0.947574 0
0.000000 0.000000 0
0.000000 1.547976 0
0.000000 0.001303 0
0.316522 -2.578276 0
0.614161 -1.786204 0
0.837575 -1.139453 0
1.033889 -0.468306 0
1.011216 0.057032 0
0.941109 0.447222 0
0.857745 0.688190 0
0.760374 0.724380 0
0.609061 0.657050 0
0.566400 0.395072 0
0.167835 0.408255 0
0.572330 1.694556 0
0.714131 3.627150 0
0.622294 5.233464 0
0.369098 6.414201 0
0.000000 0.002572 0
0.000000 -3.438065 0
0.000000 0.000000 0
0.000000 -1.906772 0
0.000000 -0.002280 0
-0.159050 3.270150 0
-0.359441 2.440934 0
-0.527823 1.846022 0
-0.670022 1.248614 0
-0.751147 0.624490 0
-0.729715 0.033999 0
-0.647239 -0.380036 0
-0.551184 -0.649292 0
-0.445903 -0.849977 0
-0.296094 -0.975165 0
-0.233564 -1.079544 0
-0.099767 -1.110170 0
-0.034664 -1.525346 0
0.084509 -3.218809 0
0.170178 -5.695260 0
0.153571 -7.958910 0
0.000000 -0.001243 0
0.000000 4.493563 0
0.000000 0.000000 0
0.000000 0.277638 0
0.000000 -0.000767 0
0.007417 -0.216376 0
-0.185877 -0.057120 0
-0.145807 -0.174696 0
-0.205536 -0.116017 0
-0.210917 -0.108942 0
-0.210158 -0.092026 0
-0.196600 -0.080394 0
-0.186535 -0.070256 0
-0.170504 -0.066239 0
-0.158515 -0.047289 0
-0.159114 -0.009483 0
-0.173175 0.024449 0
-0.179519 0.052121 0
-0.150010 0.064308 0
-0.085424 0.046384 0
0.036573 -0.003052 0
-0.004001 -0.100809 0
-0.270458 -0.123332 0
-0.354090 -0.042782 0
-0.355558 -0.005103 0
1.000000 -0.011372 0
0.999757 -0.046479 0
0.999153 -0.092169 0
1.000895 -0.137858 0
1.005224 -0.189478 0
1.010951 -0.250262 0
1.017430 -0.323725 0
1.024319 -0.414146 0
1.029211 -0.527194 0
1.031651 -0.668674 0
1.004549 -0.835609 0
0.967428 -1.039719 0
0.864143 -1.254281 0
0.661406 -1.428876 0
0.369832 -1.567885 0
0.000000 0.000038 0
0.000000 0.815736 0
0.000000 0.000000 0
0.000000 1.631466 0
0.000000 0.001260 0
0.220370 -2.746840 0
0.430349 -1.921579 0
0.588897 -1.275017 0
0.797169 -0.534131 0
0.748627 0.112632 0
0.647010 0.511429 0
0.580569 0.732308 0
0.535481 0.769861 0
0.457652 0.708521 0
0.385745 0.572629 0
0.002320 0.422948 0
0.335360 1.505966 0
0.485102 3.600382 0
0.440625 5.320439 0
0.265516 6.579340 0
0.000000 0.002868 0
0.000000 -3.536998 0
0.000000 0.000000 0
0.000000 -1.950054 0
0.000000 -0.002673 0
-0.106470 3.364714 0
-0.228142 2.537084 0
-0.333203 1.928352 0
-0.421767 1.313088 0
-0.479724 0.641617 0
-0.455210 0.000099 0
-0.391134 -0.434591 0
-0.319057 -0.706718 0
-0.225196 -0.918517 0
-0.133968 -1.038590 0
-0.078871 -1.134490 0
-0.002109 -1.156242 0
0.008788 -1.563925 0
0.068206 -3.265463 0
0.122806 -5.709449 0
0.097990 -7.914809 0
0.000000 -0.001539 0
0.000000 4.456343 0
0.000000 0.000000 0
0.000000 0.078822 0
0.000000 0.000286 0
-0.260921 -0.233568 0
-0.067389 -0.206339 0
-0.144132 -0.103956 0
-0.159360 -0.105042 0
-0.175493 -0.102615 0
-0.171522 -0.101656 0
-0.159094 -0.096487 0
-0.149254 -0.088032 0
-0.151280 -0.081154 0
-0.172776 -0.055660 0
-0.180742 -0.013221 0
-0.154257 0.017213 0
-0.116206 0.026842 0
-0.086081 0.018090 0
-0.058707 -0.032828 0
-0.048851 -0.033010 0
-0.062522 0.083590 0
-0.265140 0.087026 0
-0.347825 0.005191 0
-0.348778 -0.004670 0
1.000000 -0.011456 0
1.000055 -0.046185 0
0.998023 -0.091161 0
0.996714 -0.137950 0
0.996626 -0.191051 0
0.997381 -0.252098 0
0.997329 -0.325710 0
0.996191 -0.415352 0
0.995515 -0.527000 0
0.977471 -0.653838 0
0.940381 -0.809501 0
0.860822 -0.987606 0
0.745441 -1.150563 0
0.556959 -1.277795 0
0.300437 -1.375156 0
0.000000 0.000051 0
0.000000 0.710825 0
0.000000 0.000000 0
0.000000 1.688920 0
0.000000 0.001248 0
0.145344 -2.853648 0
0.281334 -2.022032 0
0.408065 -1.374190 0
0.528266 -0.570505 0
0.493228 0.153162 0
0.416208 0.554807 0
0.368933 0.759597 0
0.349184 0.803075 0
0.315942 0.752909 0
0.265890 0.686512 0
0.075478 0.440530 0
0.175493 1.385604 0
0.323721 3.559808 0
0.313875 5.374028 0
0.192062 6.696230 0
0.000000 0.002921 0
0.000000 -3.607661 0
0.000000 0.000000 0
0.000000 -1.975603 0
0.000000 -0.002932 0
-0.049214 3.416214 0
-0.092079 2.586072 0
-0.125652 1.969971 0
-0.148747 1.342417 0
-0.174620 0.645923 0
-0.145172 -0.022669 0
-0.125945 -0.467145 0
-0.079302 -0.755462 0
0.028542 -0.968404 0
0.047803 -1.068783 0
0.065211 -1.163905 0
0.092671 -1.166243 0
0.041178 -1.570318 0
0.068316 -3.291752 0
0.105690 -5.714293 0
0.074733 -7.880285 0
0.000000 -0.001921 0
0.000000 4.430157 0
0.000000 0.000000 0
0.000000 0.110838 0
0.000000 -0.000537 0
0.017911 -0.173192 0
-0.105960 -0.131834 0
-0.093894 -0.115803 0
-0.098153 -0.095915 0
-0.092862 -0.101128 0