# vtk DataFile Version 2.0
generated by CFD-lab course output (written by Tobias Neckel) 
ASCII

DATASET STRUCTURED_GRID
DIMENSIONS  81 26 1 
POINTS 2106 float

0.000000 0.000000 0
0.125000 0.000000 0
0.250000 0.000000 0
0.375000 0.000000 0
0.500000 0.000000 0
0.625000 0.000000 0
0.750000 0.000000 0
0.875000 0.000000 0
1.000000 0.000000 0
1.125000 0.000000 0
1.250000 0.000000 0
1.375000 0.000000 0
1.500000 0.000000 0
1.625000 0.000000 0
1.750000 0.000000 0
1.875000 0.000000 0
2.000000 0.000000 0
2.125000 0.000000 0
2.250000 0.000000 0
2.375000 0.000000 0
2.500000 0.000000 0
2.625000 0.000000 0
2.750000 0.000000 0
2.875000 0.000000 0
3.000000 0.000000 0
3.125000 0.000000 0
3.250000 0.000000 0
3.375000 0.000000 0
3.500000 0.000000 0
3.625000 0.000000 0
3.750000 0.000000 0
3.875000 0.000000 0
4.000000 0.000000 0
4.125000 0.000000 0
4.250000 0.000000 0
4.375000 0.000000 0
4.500000 0.000000 0
4.625000 0.000000 0
4.750000 0.000000 0
4.875000 0.000000 0
5.000000 0.000000 0
5.125000 0.000000 0
5.250000 0.000000 0
5.375000 0.000000 0
5.500000 0.000000 0
5.625000 0.000000 0
5.750000 0.000000 0
5.875000 0.000000 0
6.000000 0.000000 0
6.125000 0.000000 0
6.250000 0.000000 0
6.375000 0.000000 0
6.500000 0.000000 0
6.625000 0.000000 0
6.750000 0.000000 0
6.875000 0.000000 0
7.000000 0.000000 0
7.125000 0.000000 0
7.250000 0.000000 0
7.375000 0.000000 0
7.500000 0.000000 0
7.625000 0.000000 0
7.750000 0.000000 0
7.875000 0.000000 0
8.000000 0.000000 0
8.125000 0.000000 0
8.250000 0.000000 0
8.375000 0.000000 0
8.500000 0.000000 0
8.625000 0.000000 0
8.750000 0.000000 0
8.875000 0.000000 0
9.000000 0.000000 0
9.125000 0.000000 0
9.250000 0.000000 0
9.375000 0.000000 0
9.500000 0.000000 0
9.625000 0.000000 0
9.750000 0.000000 0
9.875000 0.000000 0
10.000000 0.000000 0
0.000000 0.080000 0
0.125000 0.080000 0
0.250000 0.080000 0
0.375000 0.080000 0
0.500000 0.080000 0
0.625000 0.080000 0
0.750000 0.080000 0
0.875000 0.080000 0
1.000000 0.080000 0
1.125000 0.080000 0
1.250000 0.080000 0
1.375000 0.080000 0
1.500000 0.080000 0
1.625000 0.080000 0
1.750000 0.080000 0
1.875000 0.080000 0
2.000000 0.080000 0
2.125000 0.080000 0
2.250000 0.080000 0
2.375000 0.080000 0
2.500000 0.080000 0
2.625000 0.080000 0
2.750000 0.080000 0
2.875000 0.080000 0
3.000000 0.080000 0
3.125000 0.080000 0
3.250000 0.080000 0
3.375000 0.080000 0
3.500000 0.080000 0
3.625000 0.080000 0
3.750000 0.080000 0
3.875000 0.080000 0
4.000000 0.080000 0
4.125000 0.080000 0
4.250000 0.080000 0
4.375000 0.080000 0
4.500000 0.080000 0
4.625000 0.080000 0
4.750000 0.080000 0
4.875000 0.080000 0
5.000000 0.080000 0
5.125000 0.080000 0
5.250000 0.080000 0
5.375000 0.080000 0
5.500000 0.080000 0
5.625000 0.080000 0
5.750000 0.080000 0
5.875000 0.080000 0
6.000000 0.080000 0
6.125000 0.080000 0
6.250000 0.080000 0
6.375000 0.080000 0
6.500000 0.080000 0
6.625000 0.080000 0
6.750000 0.080000 0
6.875000 0.080000 0
7.000000 0.080000 0
7.125000 0.080000 0
7.250000 0.080000 0
7.375000 0.080000 0
7.500000 0.080000 0
7.625000 0.080000 0
7.750000 0.080000 0
7.875000 0.080000 0
8.000000 0.080000 0
8.125000 0.080000 0
8.250000 0.080000 0
8.375000 0.080000 0
8.500000 0.080000 0
8.625000 0.080000 0
8.750000 0.080000 0
8.875000 0.080000 0
9.000000 0.080000 0
9.125000 0.080000 0
9.250000 0.080000 0
9.375000 0.080000 0
9.500000 0.080000 0
9.625000 0.080000 0
9.750000 0.080000 0
9.875000 0.080000 0
10.000000 0.080000 0
0.000000 0.160000 0
0.125000 0.160000 0
0.250000 0.160000 0
0.375000 0.160000 0
0.500000 0.160000 0
0.625000 0.160000 0
0.750000 0.160000 0
0.875000 0.160000 0
1.000000 0.160000 0
1.125000 0.160000 0
1.250000 0.160000 0
1.375000 0.160000 0
1.500000 0.160000 0
1.625000 0.160000 0
1.750000 0.160000 0
1.875000 0.160000 0
2.000000 0.160000 0
2.125000 0.160000 0
2.250000 0.160000 0
2.375000 0.160000 0
2.500000 0.160000 0
2.625000 0.160000 0
2.750000 0.160000 0
2.875000 0.160000 0
3.000000 0.160000 0
3.125000 0.160000 0
3.250000 0.160000 0
3.375000 0.160000 0
3.500000 0.160000 0
3.625000 0.160000 0
3.750000 0.160000 0
3.875000 0.160000 0
4.000000 0.160000 0
4.125000 0.160000 0
4.250000 0.160000 0
4.375000 0.160000 0
4.500000 0.160000 0
4.625000 0.160000 0
4.750000 0.160000 0
4.875000 0.160000 0
5.000000 0.160000 0
5.125000 0.160000 0
5.250000 0.160000 0
5.375000 0.160000 0
5.500000 0.160000 0
5.625000 0.160000 0
5.750000 0.160000 0
5.875000 0.160000 0
6.000000 0.160000 0
6.125000 0.160000 0
6.250000 0.160000 0
6.375000 0.160000 0
6.500000 0.160000 0
6.625000 0.160000 0
6.750000 0.160000 0
6.875000 0.160000 0
7.000000 0.160000 0
7.125000 0.160000 0
7.250000 0.160000 0
7.375000 0.160000 0
7.500000 0.160000 0
7.625000 0.160000 0
7.750000 0.160000 0
7.875000 0.160000 0
8.000000 0.160000 0
8.125000 0.160000 0
8.250000 0.160000 0
8.375000 0.160000 0
8.500000 0.160000 0
8.625000 0.160000 0
8.750000 0.160000 0
8.875000 0.160000 0
9.000000 0.160000 0
9.125000 0.160000 0
9.250000 0.160000 0
9.375000 0.160000 0
9.500000 0.160000 0
9.625000 0.160000 0
9.750000 0.160000 0
9.875000 0.160000 0
10.000000 0.160000 0
0.000000 0.240000 0
0.125000 0.240000 0
0.250000 0.240000 0
0.375000 0.240000 0
0.500000 0.240000 0
0.625000 0.240000 0
0.750000 0.240000 0
0.875000 0.240000 0
1.000000 0.240000 0
1.125000 0.240000 0
1.250000 0.240000 0
1.375000 0.240000 0
1.500000 0.240000 0
1.625000 0.240000 0
1.750000 0.240000 0
1.875000 0.240000 0
2.000000 0.240000 0
2.125000 0.240000 0
2.250000 0.240000 0
2.375000 0.240000 0
2.500000 0.240000 0
2.625000 0.240000 0
2.750000 0.240000 0
2.875000 0.240000 0
3.000000 0.240000 0
3.125000 0.240000 0
3.250000 0.240000 0
3.375000 0.240000 0
3.500000 0.240000 0
3.625000 0.240000 0
3.750000 0.240000 0
3.875000 0.240000 0
4.000000 0.240000 0
4.125000 0.240000 0
4.250000 0.240000 0
4.375000 0.240000 0
4.500000 0.240000 0
4.625000 0.240000 0
4.750000 0.240000 0
4.875000 0.240000 0
5.000000 0.240000 0
5.125000 0.240000 0
5.250000 0.240000 0
5.375000 0.240000 0
5.500000 0.240000 0
5.625000 0.240000 0
5.750000 0.240000 0
5.875000 0.240000 0
6.000000 0.240000 0
6.125000 0.240000 0
6.250000 0.240000 0
6.375000 0.240000 0
6.500000 0.240000 0
6.625000 0.240000 0
6.750000 0.240000 0
6.875000 0.240000 0
7.000000 0.240000 0
7.125000 0.240000 0
7.250000 0.240000 0
7.375000 0.240000 0
7.500000 0.240000 0
7.625000 0.240000 0
7.750000 0.240000 0
7.875000 0.240000 0
8.000000 0.240000 0
8.125000 0.240000 0
8.250000 0.240000 0
8.375000 0.240000 0
8.500000 0.240000 0
8.625000 0.240000 0
8.750000 0.240000 0
8.875000 0.240000 0
9.000000 0.240000 0
9.125000 0.240000 0
9.250000 0.240000 0
9.375000 0.240000 0
9.500000 0.240000 0
9.625000 0.240000 0
9.750000 0.240000 0
9.875000 0.240000 0
10.000000 0.240000 0
0.000000 0.320000 0
0.125000 0.320000 0
0.250000 0.320000 0
0.375000 0.320000 0
0.500000 0.320000 0
0.625000 0.320000 0
0.750000 0.320000 0
0.875000 0.320000 0
1.000000 0.320000 0
1.125000 0.320000 0
1.250000 0.320000 0
1.375000 0.320000 0
1.500000 0.320000 0
1.625000 0.320000 0
1.750000 0.320000 0
1.875000 0.320000 0
2.000000 0.320000 0
2.125000 0.320000 0
2.250000 0.320000 0
2.375000 0.320000 0
2.500000 0.320000 0
2.625000 0.320000 0
2.750000 0.320000 0
2.875000 0.320000 0
3.000000 0.320000 0
3.125000 0.320000 0
3.250000 0.320000 0
3.375000 0.320000 0
3.500000 0.320000 0
3.625000 0.320000 0
3.750000 0.320000 0
3.875000 0.320000 0
4.000000 0.320000 0
4.125000 0.320000 0
4.250000 0.320000 0
4.375000 0.320000 0
4.500000 0.320000 0
4.625000 0.320000 0
4.750000 0.320000 0
4.875000 0.320000 0
5.000000 0.320000 0
5.125000 0.320000 0
5.250000 0.320000 0
5.375000 0.320000 0
5.500000 0.320000 0
5.625000 0.320000 0
5.750000 0.320000 0
5.875000 0.320000 0
6.000000 0.320000 0
6.125000 0.320000 0
6.250000 0.320000 0
6.375000 0.320000 0
6.500000 0.320000 0
6.625000 0.320000 0
6.750000 0.320000 0
6.875000 0.320000 0
7.000000 0.320000 0
7.125000 0.320000 0
7.250000 0.320000 0
7.375000 0.320000 0
7.500000 0.320000 0
7.625000 0.320000 0
7.750000 0.320000 0
7.875000 0.320000 0
8.000000 0.320000 0
8.125000 0.320000 0
8.250000 0.320000 0
8.375000 0.320000 0
8.500000 0.320000 0
8.625000 0.320000 0
8.750000 0.320000 0
8.875000 0.320000 0
9.000000 0.320000 0
9.125000 0.320000 0
9.250000 0.320000 0
9.375000 0.320000 0
9.500000 0.320000 0
9.625000 0.320000 0
9.750000 0.320000 0
9.875000 0.320000 0
10.000000 0.320000 0
0.000000 0.400000 0
0.125000 0.400000 0
0.250000 0.400000 0
0.375000 0.400000 0
0.500000 0.400000 0
0.625000 0.400000 0
0.750000 0.400000 0
0.875000 0.400000 0
1.000000 0.400000 0
1.125000 0.400000 0
1.250000 0.400000 0
1.375000 0.400000 0
1.500000 0.400000 0
1.625000 0.400000 0
1.750000 0.400000 0
1.875000 0.400000 0
2.000000 0.400000 0
2.125000 0.400000 0
2.250000 0.400000 0
2.375000 0.400000 0
2.500000 0.400000 0
2.625000 0.400000 0
2.750000 0.400000 0
2.875000 0.400000 0
3.000000 0.400000 0
3.125000 0.400000 0
3.250000 0.400000 0
3.375000 0.400000 0
3.500000 0.400000 0
3.625000 0.400000 0
3.750000 0.400000 0
3.875000 0.400000 0
4.000000 0.400000 0
4.125000 0.400000 0
4.250000 0.400000 0
4.375000 0.400000 0
4.500000 0.400000 0
4.625000 0.400000 0
4.750000 0.400000 0
4.875000 0.400000 0
5.000000 0.400000 0
5.125000 0.400000 0
5.250000 0.400000 0
5.375000 0.400000 0
5.500000 0.400000 0
5.625000 0.400000 0
5.750000 0.400000 0
5.875000 0.400000 0
6.000000 0.400000 0
6.125000 0.400000 0
6.250000 0.400000 0
6.375000 0.400000 0
6.500000 0.400000 0
6.625000 0.400000 0
6.750000 0.400000 0
6.875000 0.400000 0
7.000000 0.400000 0
7.125000 0.400000 0
7.250000 0.400000 0
7.375000 0.400000 0
7.500000 0.400000 0
7.625000 0.400000 0
7.750000 0.400000 0
7.875000 0.400000 0
8.000000 0.400000 0
8.125000 0.400000 0
8.250000 0.400000 0
8.375000 0.400000 0
8.500000 0.400000 0
8.625000 0.400000 0
8.750000 0.400000 0
8.875000 0.400000 0
9.000000 0.400000 0
9.125000 0.400000 0
9.250000 0.400000 0
9.375000 0.400000 0
9.500000 0.400000 0
9.625000 0.400000 0
9.750000 0.400000 0
9.875000 0.400000 0
10.000000 0.400000 0
0.000000 0.480000 0
0.125000 0.480000 0
0.250000 0.480000 0
0.375000 0.480000 0
0.500000 0.480000 0
[...]
POINT_DATA 2106 

VECTORS velocity float
0.500000 0.000000 0
0.000000 0.000000 0
-0.000000 0.000000 0
-0.000000 0.000000 0
0.000000 0.000000 0
0.000001 0.000000 0
0.000002 0.000000 0
0.000005 0.000000 0
0.000011 0.000000 0
0.000018 0.000000 0
0.000029 0.000000 0
0.000049 0.000000 0
0.000082 0.000000 0
0.000125 0.000000 0
0.000149 0.000000 0
-0.000042 0.000000 0
-0.000441 0.000000 0
0.000206 0.000000 0
0.001068 0.000000 0
0.001304 0.000000 0
0.001420 0.000000 0
0.001774 0.000000 0
0.002114 0.000000 0
0.002215 0.000000 0
0.002120 0.000000 0
0.001950 0.000000 0
0.001779 0.000000 0
0.001651 0.000000 0
0.001620 0.000000 0
0.001759 0.000000 0
0.001464 0.000000 0
0.001343 0.000000 0
0.001234 0.000000 0
0.001015 0.000000 0
0.000643 0.000000 0
0.000000 0.000000 0
0.000000 0.000000 0
0.000000 0.000000 0
0.000000 0.000000 0
0.000000 0.000000 0
0.006835 0.000000 0
0.001209 0.000000 0
0.004938 0.000000 0
0.005975 0.000000 0
0.006137 0.000000 0
0.006132 0.000000 0
0.005815 0.000000 0
0.005456 0.000000 0
0.004891 0.000000 0
0.004167 0.000000 0
0.002470 0.000000 0
-0.000293 0.000000 0
-0.003256 0.000000 0
-0.005231 0.000000 0
-0.004863 0.000000 0
-0.000460 0.000000 0
0.001522 0.000000 0
0.002407 0.000000 0
0.001491 0.000000 0
0.001123 0.000000 0
0.002694 0.000000 0
0.003814 0.000000 0
0.003727 0.000000 0
0.003262 0.000000 0
0.002736 0.000000 0
0.002115 0.000000 0
0.001405 0.000000 0
0.000683 0.000000 0
0.000008 0.000000 0
-0.000615 0.000000 0
-0.001203 0.000000 0
-0.001759 0.000000 0
-0.002309 0.000000 0
-0.002976 0.000000 0
-0.004025 0.000000 0
-0.005364 0.000000 0
-0.006902 0.000000 0
-0.008433 0.000000 0
-0.009692 0.000000 0
-0.010521 0.000000 0
-0.010850 0.000000 0
1.000000 -0.001855 0
1.007116 -0.006312 0
1.022513 -0.012005 0
1.047444 -0.018772 0
1.083633 -0.026920 0
1.133477 -0.036915 0
1.200203 -0.049560 0
1.288583 -0.064713 0
1.402090 -0.086770 0
1.556964 -0.117851 0
1.767059 -0.169333 0
2.075122 -0.237134 0
2.494114 -0.335367 0
3.107582 -0.451244 0
3.921486 -0.658879 0
5.265458 -0.698481 0
6.144166 -0.460454 0
6.629545 -0.266064 0
6.895309 -0.151990 0
7.056868 -0.094382 0
7.171438 -0.066041 0
7.253995 -0.044731 0
7.307551 -0.026127 0
7.335552 -0.009423 0
7.340555 0.007082 0
7.321626 0.026893 0
7.272311 0.057014 0
7.171991 0.106968 0
6.982539 0.192703 0
6.626969 0.315843 0
6.077186 0.459748 0
5.252379 0.623032 0
4.180830 0.769325 0
2.889334 0.957550 0
1.369356 0.878623 0
0.000000 0.000413 0
0.000000 -0.334514 0
0.000000 0.000000 0
0.000000 -0.767247 0
0.000000 -0.004371 0
-1.911524 1.146450 0
-2.908106 0.567960 0
-3.502071 0.292616 0
-3.835848 0.165293 0
-4.041506 0.081686 0
-4.139107 0.017675 0
-4.127390 -0.041258 0
-4.016881 -0.091503 0
-3.820849 -0.133863 0
-3.547331 -0.160302 0
-3.209691 -0.172882 0
-2.872144 -0.160992 0
-2.534088 -0.166359 0
-2.208308 -0.340169 0
-1.193579 -1.138993 0
1.375010 -2.628576 0
5.856598 -2.630187 0
8.249884 -1.309474 0
9.361006 -0.561293 0
9.727728 -0.179523 0
9.786139 -0.032293 0
9.780009 0.011527 0
9.749167 0.026851 0
9.705276 0.031072 0
9.660573 0.027424 0
9.626000 0.020038 0
9.603219 0.012663 0
9.589705 0.007010 0
9.582031 0.003206 0
9.577769 0.000731 0
9.575514 -0.000836 0
9.574225 -0.001720 0
9.572780 -0.002392 0
9.570501 -0.004149 0
9.569916 -0.008650 0
9.576528 -0.016219 0
9.594685 -0.025325 0
9.626064 -0.033004 0
9.667341 -0.035847 0
9.709334 -0.024581 0
9.725371 -0.013708 0
1.000000 -0.004600 0
1.008143 -0.014484 0
1.024599 -0.025869 0
1.050272 -0.039176 0
1.086685 -0.055120 0
1.136043 -0.074664 0
1.201462 -0.099326 0
1.287126 -0.129267 0
1.398764 -0.171823 0
1.545012 -0.233639 0
1.750783 -0.331679 0
2.029377 -0.465373 0
2.433911 -0.660832 0
3.014841 -0.913575 0
3.858032 -1.381097 0
5.363797 -1.422571 0
6.020559 -0.873071 0
6.356986 -0.480786 0
6.523961 -0.273540 0
6.631393 -0.176776 0
6.721489 -0.126214 0
6.792581 -0.087165 0
6.840798 -0.052249 0
6.868517 -0.021174 0
6.878960 0.008862 0
6.872954 0.043625 0
6.851534 0.095715 0
6.803286 0.185403 0
6.696733 0.348763 0
6.453866 0.579375 0
5.971087 0.879687 0
5.250667 1.213618 0
4.233208 1.512299 0
2.997478 1.799293 0
1.673597 1.849124 0
0.000000 0.000621 0
0.000000 -0.875742 0
0.000000 0.000000 0
0.000000 -1.225307 0
0.000000 -0.001963 0
-1.210356 1.861136 0
-1.959523 1.017910 0
-2.572663 0.593715 0
-2.902698 0.345197 0
-3.166966 0.194045 0
-3.294953 0.054926 0
-3.314152 -0.078265 0
-3.211581 -0.196227 0
-2.987668 -0.300552 0
-2.672322 -0.391181 0
-2.269940 -0.432159 0
-1.796355 -0.432425 0
-1.339372 -0.424894 0
-0.807314 -0.857965 0
0.410136 -2.293362 0
2.556362 -4.512151 0
5.768730 -4.399957 0
7.152200 -2.242858 0
7.781405 -0.945856 0
7.827507 -0.272120 0
7.731969 -0.033495 0
7.726354 0.023627 0
7.715749 0.047795 0
7.681824 0.056666 0
7.642959 0.050703 0
7.616747 0.036673 0
7.600580 0.023196 0
7.588458 0.013528 0
7.575805 0.007606 0
7.560801 0.004138 0
7.542925 0.002236 0
7.521852 0.001717 0
7.496798 0.002351 0
7.466501 0.001801 0
7.429968 -0.003890 0
7.390287 -0.015885 0
7.357558 -0.031736 0
7.338425 -0.046532 0
7.335024 -0.053325 0
7.346179 -0.037171 0
7.353212 -0.020961 0
1.000000 -0.007092 0
1.007291 -0.022091 0
1.022654 -0.038987 0
1.046775 -0.058526 0
1.080972 -0.081833 0
1.127241 -0.110392 0
1.188499 -0.146272 0
1.268233 -0.191006 0
1.375799 -0.251836 0
1.508316 -0.343163 0
1.695350 -0.479346 0
1.944633 -0.674355 0
2.295991 -0.966083 0
2.813088 -1.362700 0
3.628079 -2.162230 0
5.223600 -2.082516 0
5.398090 -1.096112 0
5.392726 -0.588258 0
5.387102 -0.327629 0
5.390494 -0.220817 0
5.429769 -0.169218 0
5.470454 -0.121106 0
5.500843 -0.074743 0
5.522503 -0.033864 0
5.538896 0.004225 0
5.548796 0.044429 0
5.567581 0.101585 0
5.599252 0.206024 0
5.644693 0.416315 0
5.677194 0.780240 0
5.383600 1.229778 0
4.821493 1.735258 0
3.958143 2.211349 0
2.824143 2.595684 0
1.590552 2.796992 0
0.000000 0.000833 0
0.000000 -1.405188 0
0.000000 0.000000 0
0.000000 -1.539905 0
0.000000 -0.002419 0
-0.848380 2.400520 0
-1.482045 1.439823 0
-1.996147 0.896235 0
-2.402391 0.545634 0
-2.677571 0.332715 0
-2.844036 0.111861 0
-2.877553 -0.094629 0
-2.777139 -0.300466 0
-2.548093 -0.479002 0
-2.227489 -0.619661 0
-1.814936 -0.733515 0
-1.351924 -0.756569 0
-0.803800 -0.799358 0
-0.214094 -1.459867 0
0.963555 -3.291758 0
2.689290 -6.058089 0
5.250316 -5.571536 0
5.111178 -2.597598 0
5.172812 -0.993502 0
4.859070 -0.147895 0
4.391183 0.032434 0
4.399692 0.021896 0
4.426375 0.055339 0
4.343248 0.077646 0
4.224449 0.069061 0
4.095534 0.047150 0
4.006925 0.030757 0
3.959528 0.022855 0
3.942041 0.020895 0
3.941047 0.021763 0
3.946579 0.024080 0
3.952870 0.027790 0
3.956873 0.033022 0
3.957059 0.038611 0
3.953754 0.040116 0
3.950908 0.030113 0
3.948921 0.007856 0
3.962629 -0.018594 0
3.987296 -0.040820 0
4.029318 -0.036232 0
4.034230 -0.023336 0
1.000000 -0.009292 0
1.006184 -0.029018 0
1.020223 -0.051158 0
1.042352 -0.076519 0
1.073677 -0.106638 0
1.115925 -0.143500 0
1.171566 -0.189581 0
1.243888 -0.249158 0
1.340268 -0.325495 0
1.459172 -0.438171 0
1.618815 -0.610941 0
1.823706 -0.849803 0
2.091633 -1.216663 0
2.474744 -1.766131 0
3.101576 -2.923844 0
4.368571 -2.555396 0
3.671938 -0.981330 0
3.070294 -0.473771 0
2.752757 -0.272129 0
2.550807 -0.204100 0
2.626590 -0.177405 0
2.669889 -0.132669 0
2.699395 -0.085577 0
2.719328 -0.045545 0
2.749696 -0.007982 0
2.824997 0.025250 0
2.911984 0.063406 0
3.038401 0.136034 0
3.312759 0.298864 0
3.734657 0.746458 0
4.034177 1.427319 0
3.892370 2.125894 0
3.359592 2.790586 0
2.478629 3.314534 0
1.380308 3.656558 0
0.000000 0.001003 0
0.000000 -1.893306 0
0.000000 0.000000 0
0.000000 -1.770137 0
0.000000 -0.003848 0
-0.630279 2.809620 0
-1.145836 1.752467 0
-1.568106 1.182723 0
-2.030863 0.781295 0
-2.252937 0.476685 0
-2.398214 0.182901 0
-2.421327 -0.121093 0
-2.317971 -0.407094 0
-2.087732 -0.652341 0
-1.761600 -0.860414 0
-1.452754 -0.992533 0
-1.068827 -1.079566 0
-0.503963 -1.153118 0
0.033582 -1.989085 0
1.019427 -4.151541 0
2.313424 -7.255690 0
4.049715 -5.949978 0
1.881533 -2.193267 0
0.604777 -0.784518 0
0.329169 0.228111 0
0.425581 0.260496 0
1.313727 0.001093 0
0.861415 0.083909 0
1.173352 0.185888 0
1.065702 0.209228 0
0.979883 0.175877 0
0.927400 0.110229 0
0.915552 0.055042 0
0.934649 0.019423 0
0.976012 0.001223 0
1.032431 -0.005342 0
1.097691 -0.004882 0
1.166359 -0.000341 0
1.236060 0.003786 0
1.311560 0.000036 0
1.402326 -0.012803 0
1.518996 -0.039248 0
1.621402 -0.071103 0
1.703537 -0.096017 0
1.756148 -0.067220 0
1.758626 -0.027813 0
1.000000 -0.011076 0
1.004450 -0.035070 0
1.017054 -0.062155 0
1.036734 -0.092756 0
1.064479 -0.128939 0
1.101704 -0.173061 0
1.150291 -0.228189 0
1.213057 -0.298994 0
1.292552 -0.389637 0
1.397819 -0.521453 0
1.524880 -0.712667 0
1.652497 -0.976978 0
1.841791 -1.382767 0
2.054007 -2.009082 0
2.310416 -3.374298 0
2.007303 -2.447567 0
-0.008304 -0.265233 0
0.001200 0.000000 0
0.000594 0.004825 0
0.285883 -0.140087 0
0.847269 -0.245448 0
1.026180 -0.167718 0
1.099034 -0.106401 0
1.118120 -0.066074 0
1.112752 -0.063420 0
1.116977 -0.059453 0
1.124152 -0.035010 0
1.171715 -0.050488 0
1.272487 -0.029305 0
1.599804 0.318516 0
2.477408 1.128825 0
2.774252 2.166976 0
2.587406 3.116127 0
2.003541 3.862410 0
1.119250 4.383299 0
0.000000 0.001126 0
0.000000 -2.288284 0
0.000000 0.000000 0
0.000000 -1.944278 0
0.000000 -0.003431 0
-0.477184 3.133830 0
-0.896727 2.040018 0
-1.277122 1.462639 0
-1.578438 0.983913 0
-1.810133 0.567806 0
-1.926916 0.219617 0
-1.956836 -0.145997 0
-1.861122 -0.513981 0
-1.647745 -0.835092 0
-1.377944 -1.026060 0
-1.157670 -1.176902 0
-0.794165 -1.363808 0
-0.378198 -1.504913 0
0.150999 -2.434849 0
0.828124 -4.750870 0
1.601722 -7.997486 0
1.880846 -5.295138 0
-0.002188 -0.392850 0
-0.000895 0.000000 0
-0.001388 -0.033221 0
-0.775417 -0.597695 0
-0.492220 -0.257049 0
-0.253185 0.145168 0
-0.068070 -0.053108 0
0.021642 0.192871 0
0.126711 0.135652 0
0.204278 0.071918 0
0.267974 0.018204 0
0.318716 -0.017811 0
0.370160 -0.040828 0
0.430737 -0.053805 0
0.495545 -0.057935 0
0.564962 -0.055545 0
0.640406 -0.054328 0
0.720124 -0.066305 0
0.820237 -0.102657 0
0.928365 -0.132363 0
1.076192 -0.136710 0
1.165969 -0.127069 0
1.179978 -0.071500 0
1.178153 -0.026624 0
1.000000 -0.012167 0
1.001321 -0.039968 0
1.012943 -0.071839 0
1.029823 -0.106891 0
1.053468 -0.148239 0
1.084971 -0.198439 0
1.125603 -0.260866 0
1.176907 -0.340225 0
1.240187 -0.443762 0
1.321351 -0.586880 0
1.406120 -0.773954 0
1.494769 -1.052645 0
1.592563 -1.473648 0
1.636432 -2.066070 0
1.453245 -2.893973 0
0.169749 0.000134 0
-1.207021 1.687463 0
-0.717438 0.000000 0
-0.457842 0.442978 0
0.000000 -0.012844 0
1.031218 -0.649243 0
1.303669 -0.293815 0
1.376010 -0.144436 0
1.374665 -0.054342 0
1.322023 -0.007268 0
1.210876 0.017937 0
1.097321 0.028357 0
0.977309 0.041084 0
0.877846 0.024870 0
0.676148 -0.024708 0
1.480669 0.675656 0
1.884827 2.055478 0
1.923012 3.283825 0
1.525489 4.254138 0
0.881401 4.938808 0
0.000000 0.001246 0
0.000000 -2.609374 0
0.000000 0.000000 0
0.000000 -2.074602 0
0.000000 -0.002932 0
-0.351589 3.383501 0
-0.683643 2.264414 0
-0.968108 1.619004 0
-1.139507 1.122408 0
-1.352578 0.699697 0
-1.429858 0.276778 0
-1.447303 -0.163214 0
-1.352070 -0.604926 0
-1.134115 -0.961588 0
-1.014556 -1.174076 0
-0.788061 -1.366165 0
-0.540528 -1.578440 0
-0.237005 -1.758036 0
0.142266 -2.761144 0
0.592477 -5.080017 0
0.905218 -7.929446 0
0.251424 -0.001398 0
0.008753 4.684546 0
1.182844 0.000000 0
1.235372 0.193803 0
0.000000 -0.002607 0
-0.400886 -0.346758 0
-0.047377 -0.187558 0
-0.167760 0.009988 0
-0.008098 0.084557 0
0.106925 0.058979 0
0.184379 0.019810 0
0.234479 -0.018209 0
0.266179 -0.045988 0
0.293283 -0.070481 0
0.322045 -0.085599 0
0.349831 -0.090797 0
0.382225 -0.093063 0
0.418194 -0.095528 0
0.448883 -0.115067 0
0.497573 -0.146087 0
0.523221 -0.203070 0
0.626356 -0.223181 0
0.744629 -0.162450 0
0.762777 -0.075028 0
0.762188 -0.025395 0
1.000000 -0.011948 0
0.999844 -0.043389 0
1.008386 -0.080416 0
1.022969 -0.118712 0
1.041986 -0.164253 0
1.066991 -0.219247 0
1.098866 -0.287048 0
1.137939 -0.372347 0
1.184026 -0.482101 0
1.236168 -0.627669 0
1.289020 -0.823674 0
1.347495 -1.096321 0
1.358621 -1.473450 0
1.263376 -1.919938 0
0.887629 -2.435641 0
0.000000 0.000127 0
0.000000 1.361033 0
0.000000 0.000000 0
0.000000 0.784743 0
0.000000 -0.018195 0
1.096952 -1.077850 0
1.354644 -0.388401 0
1.413291 -0.151855 0
1.378761 -0.031539 0
1.304635 0.041388 0
1.203286 0.084340 0
1.090942 0.114456 0
0.970750 0.089959 0
0.885272 0.163421 0
0.691717 -0.067308 0
0.760564 0.355254 0
1.249358 1.883860 0
1.377105 3.346087 0
1.142739 4.529024 0
0.662306 5.359595 0
0.000000 0.001366 0
0.000000 -2.852133 0
0.000000 0.000000 0
0.000000 -2.168329 0
0.000000 -0.002483 0
-0.246971 3.571337 0
-0.496764 2.434577 0
-0.690323 1.754378 0
-0.837008 1.229960 0
-0.939541 0.753618 0
-0.946126 0.280228 0
-0.900449 -0.195795 0
-0.801878 -0.714435 0
-0.672201 -1.051115 0
-0.611762 -1.247548 0
-0.462826 -1.480293 0
-0.328146 -1.716497 0
-0.123145 -1.941915 0
0.110959 -2.965730 0
0.382055 -5.239172 0
0.487057 -7.779226 0
0.000000 -0.001063 0
0.000000 4.482804 0
0.000000 0.000000 0
0.000000 0.319040 0
0.000000 -0.002489 0
-0.200555 -0.240355 0
-0.156462 -0.004044 0
-0.184034 -0.078258 0
-0.079574 0.017061 0
-0.008735 0.012456 0
0.040969 -0.009727 0
0.062703 -0.034159 0
0.072022 -0.055456 0
0.068062 -0.076593 0
0.061468 -0.090007 0
0.054432 -0.096460 0
0.048047 -0.099307 0
0.043030 -0.097000 0
0.030440 -0.117119 0
0.002182 -0.150244 0
-0.023328 -0.214794 0
-0.036175 -0.278422 0
0.016024 -0.214389 0
-0.031377 -0.082748 0
-0.031118 -0.025770 0
1.000000 -0.012092 0
1.000657 -0.045371 0
1.002650 -0.086659 0
1.015768 -0.128415 0
1.029856 -0.176432 0
1.047884 -0.234862 0
1.070624 -0.306293 0
1.097517 -0.394747 0
1.126732 -0.506649 0
1.156423 -0.654096 0
1.184376 -0.845223 0
1.191540 -1.097209 0
1.155316 -1.419831 0
0.999357 -1.764654 0
0.649549 -2.085432 0
0.000000 0.000377 0
0.000000 1.119634 0
0.000000 0.000000 0
0.000000 1.139407 0
0.000000 -0.018487 0
0.949792 -1.516246 0
1.313847 -0.496289 0
1.446437 -0.159887 0
1.422103 0.015181 0
1.326838 0.105020 0
1.206258 0.154684 0
1.083083 0.177164 0
0.967443 0.172695 0
0.805241 0.203434 0
0.797045 0.055089 0
0.346671 0.318749 0
0.808645 1.660875 0
0.965098 3.352045 0
0.834806 4.711593 0
0.488343 5.670144 0
0.000000 0.001456 0
0.000000 -3.033031 0
0.000000 0.000000 0
0.000000 -2.231639 0
0.000000 -0.001926 0
-0.155812 3.701405 0
-0.319983 2.548146 0
-0.423076 1.836746 0
-0.473962 1.281894 0
-0.461056 0.769519 0
-0.426009 0.251746 0
-0.339273 -0.255547 0
-0.275939 -0.751018 0
-0.310570 -1.083275 0
-0.250873 -1.308089 0
-0.188646 -1.547693 0
-0.119898 -1.795849 0
-0.036037 -2.039076 0
0.087097 -3.084485 0
0.244444 -5.320733 0
0.269275 -7.684944 0
0.000000 -0.000755 0
0.000000 4.373479 0
0.000000 0.000000 0
0.000000 0.066588 0
0.000000 -0.001481 0
-0.267275 -0.246642 0
-0.108896 -0.198143 0
-0.179965 -0.039232 0
-0.133445 -0.027645 0
-0.089834 -0.018179 0
-0.060868 -0.025922 0
-0.051296 -0.038094 0
-0.053866 -0.049428 0
-0.069171 -0.063738 0
-0.078487 -0.076886 0
-0.087482 -0.082218 0
-0.107566 -0.085776 0
-0.138049 -0.084271 0
-0.174905 -0.088935 0
-0.247846 -0.111686 0
-0.302745 -0.178532 0
-0.364754 -0.248377 0
-0.403046 -0.165532 0
-0.411858 -0.044868 0
-0.413935 -0.025653 0
1.000000 -0.012394 0
1.000219 -0.045120 0
0.999782 -0.090107 0
1.007644 -0.136143 0
1.016809 -0.184826 0
1.028161 -0.245358 0
1.042425 -0.318832 0
1.058405 -0.408276 0
1.073419 -0.519820 0
1.085428 -0.664581 0
1.088395 -0.846168 0
1.065420 -1.077742 0
0.999747 -1.350472 0
0.812284 -1.596266 0
0.481234 -1.796072 0
0.000000 0.000231 0
0.000000 0.945436 0
0.000000 0.000000 0
0.000000 1.398528 0
0.000000 -0.012300 0
0.626995 -1.918743 0
1.193494 -0.706270 0
1.417953 -0.221156 0
1.439864 0.044987 0
1.351506 0.179513 0
1.222060 0.240326 0
1.090698 0.267281 0
0.957749 0.267762 0
0.801180 0.272459 0
0.694541 0.226160 0
0.257722 0.347813 0
0.513020 1.488050 0
0.674714 3.329328 0
0.604835 4.834131 0
0.353746 5.893854 0
0.000000 0.001480 0
0.000000 -3.164549 0
0.000000 0.000000 0
0.000000 -2.266638 0
0.000000 -0.001090 0
-0.067920 3.776101 0
-0.144262 2.605612 0
-0.158093 1.852911 0
-0.108141 1.254254 0
0.000978 0.722914 0
0.087748 0.202273 0
0.158907 -0.291853 0
0.167041 -0.732818 0
0.082275 -1.067171 0
0.074132 -1.325593 0
0.063643 -1.564131 0
0.064532 -1.814180 0
0.041021 -2.074406 0
0.089246 -3.145251 0
0.170309 -5.355779 0
0.161149 -7.622795 0
0.000000 -0.000526 0
0.000000 4.311012 0
0.000000 0.000000 0
0.000000 0.148411 0
0.000000 -0.002077 0
0.021303 -0.170682 0
-0.144332 -0.059933 0
-0.134495 -0.062558 0
-0.141290 -0.040634 0
-0.127332 -0.034004 0
-0.113476 -0.034402 0
-0.094810 -0.038651 0
-0.081035 -0.044026 0
-0.065535 -0.060847 0
-0.049036 -0.078299 0
-0.040758 -0.077861 0
-0.052894 -0.066955 0
-0.075172 -0.053914 0
-0.083857 -0.046860 0
-0.099046 -0.068438 0
-0.087948 -0.139983 0
-0.179949 -0.214240 0
-0.371661 -0.184254 0
-0.408052 -0.075790 0
-0.411295 -0.023014 0
1.000000 -0.012259 0
0.999209 -0.045268 0
1.000722 -0.091431 0
1.000348 -0.139332 0
1.004616 -0.189583 0
1.009894 -0.251276 0
1.017055 -0.325669 0
1.023862 -0.414603 0
1.028150 -0.523963 0
1.027758 -0.663700 0
1.004570 -0.832437 0
0.969744 -1.040494 0
0.865564 -1.257843 0
0.660639 -1.432825 0
0.376877 -1.565590 0
0.000000 0.000165 0
0.000000 0.811442 0
0.000000 0.000000 0
0.000000 1.553202 0
0.000000 -0.005992 0
0.376744 -2.280113 0
1.052752 -1.002519 0
1.325989 -0.317581 0
1.408030 0.057690 0
1.346971 0.244397 0
1.225380 0.321585 0
1.085431 0.346306 0
0.952455 0.357970 0
0.802282 0.371871 0
0.650923 0.402886 0
0.282586 0.434906 0
0.326467 1.393984 0
0.472940 3.293267 0
0.443100 4.916996 0
0.259172 6.057222 0
0.000000 0.001442 0
0.000000 -3.259435 0
0.000000 0.000000 0
0.000000 -2.272839 0
0.000000 0.000325 0
0.025756 3.793707 0
0.040808 2.605842 0
0.111735 1.813616 0
0.247453 1.180075 0
0.396485 0.644137 0
0.502696 0.150657 0
0.555411 -0.306308 0
0.523399 -0.701986 0
0.425989 -1.023827 0
0.355526 -1.296178 0
0.279412 -1.541563 0
0.221230 -1.781385 0
0.104896 -2.054906 0
0.100494 -3.167242 0
0.137751 -5.366763 0
0.111611 -7.575959 0
0.000000 -0.000397 0
0.000000 4.270709 0
0.000000 0.000000 0
0.000000 0.080536 0
0.000000 -0.001181 0
-0.141928 -0.154290 0
-0.090403 -0.098443 0
-0.102363 -0.041189 0
-0.118929 -0.032241 0
-0.125081 -0.035991 0
-0.118351 -0.046746 0
-0.094274 -0.058867 0
-0.064558 -0.068175 0
-0.039015 -0.084228 0
-0.042578 -0.092754 0
-0.068047 -0.079760 0
-0.077406 -0.063762 0
-0.051109 -0.064465 0
-0.029709 -0.073667 0
-0.005385 -0.109079 0
-0.021573 -0.126765 0
-0.121424 -0.066811 0
-0.287612 -0.019557 0
-0.376593 -0.019513 0
-0.379461 -0.021390 0
1.000000 -0.011914 0
0.998981 -0.045618 0
0.999133 -0.090856 0
0.996368 -0.138656 0
0.997045 -0.190955 0
0.996612 -0.253339 0
0.997840 -0.327792 0
0.995332 -0.415396 0
0.992632 -0.522333 0
0.972665 -0.649509 0
0.938783 -0.809059 0
0.864409 -0.988798 0
0.746765 -1.152664 0
0.554763 -1.283526 0
0.307264 -1.373283 0
0.000000 0.000140 0
0.000000 0.704153 0
0.000000 0.000000 0
0.000000 1.649412 0
0.000000 -0.002554 0
0.258088 -2.592535 0
0.855899 -1.313804 0
1.199617 -0.448551 0
1.332130 0.031542 0
1.315687 0.296392 0
1.209998 0.407695 0
1.065456 0.441936 0
0.930923 0.448961 0
0.782942 0.465423 0
0.596955 0.558749 0
0.324649 0.555449 0
0.216944 1.366207 0
0.337544 3.254666 0
0.329882 4.970927 0
0.197666 6.177422 0
0.000000 0.001368 0
0.000000 -3.330523 0
0.000000 0.000000 0
0.000000 -2.246763 0
0.000000 0.002282 0
0.124172 3.749959 0
0.247874 2.550573 0
0.405365 1.720645 0
0.586484 1.072000 0
0.757683 0.559545 0
0.847229 0.100547 0
0.874263 -0.305117 0
0.822886 -0.650002 0
0.729601 -0.959745 0
0.602011 -1.231796 0
0.463730 -1.478194 0
0.338870 -1.702503 0
0.151611 -1.997148 0
0.120340 -3.166292 0
0.131566 -5.362907 0
0.093914 -7.534647 0
0.000000 -0.000369 0
0.000000 4.239743 0
0.000000 0.000000 0
0.000000 0.058590 0
0.000000 -0.001078 0
-0.036210 -0.112844 0
-0.079601 -0.085266 0
-0.074786 -0.044312 0
-0.069763 -0.026105 0
-0.055218 -0.034385 0
-0.037598 -0.054129 0