# vtk DataFile Version 2.0
generated by CFD-lab course output (written by Tobias Neckel) 
ASCII

DATASET STRUCTURED_GRID
DIMENSIONS  81 26 1 
POINTS 2106 float

0.000000 0.000000 0
0.125000 0.000000 0
0.250000 0.000000 0
0.375000 0.000000 0
0.500000 0.000000 0
0.625000 0.000000 0
0.750000 0.000000 0
0.875000 0.000000 0
1.000000 0.000000 0
1.125000 0.000000 0
1.250000 0.000000 0
1.375000 0.000000 0
1.500000 0.000000 0
1.625000 0.000000 0
1.750000 0.000000 0
1.875000 0.000000 0
2.000000 0.000000 0
2.125000 0.000000 0
2.250000 0.000000 0
2.375000 0.000000 0
2.500000 0.000000 0
2.625000 0.000000 0
2.750000 0.000000 0
2.875000 0.000000 0
3.000000 0.000000 0
3.125000 0.000000 0
3.250000 0.000000 0
3.375000 0.000000 0
3.500000 0.000000 0
3.625000 0.000000 0
3.750000 0.000000 0
3.875000 0.000000 0
4.000000 0.000000 0
4.125000 0.000000 0
4.250000 0.000000 0
4.375000 0.000000 0
4.500000 0.000000 0
4.625000 0.000000 0
4.750000 0.000000 0
4.875000 0.000000 0
5.000000 0.000000 0
5.125000 0.000000 0
5.250000 0.000000 0
5.375000 0.000000 0
5.500000 0.000000 0
5.625000 0.000000 0
5.750000 0.000000 0
5.875000 0.000000 0
6.000000 0.000000 0
6.125000 0.000000 0
6.250000 0.000000 0
6.375000 0.000000 0
6.500000 0.000000 0
6.625000 0.000000 0
6.750000 0.000000 0
6.875000 0.000000 0
7.000000 0.000000 0
7.125000 0.000000 0
7.250000 0.000000 0
7.375000 0.000000 0
7.500000 0.000000 0
7.625000 0.000000 0
7.750000 0.000000 0
7.875000 0.000000 0
8.000000 0.000000 0
8.125000 0.000000 0
8.250000 0.000000 0
8.375000 0.000000 0
8.500000 0.000000 0
8.625000 0.000000 0
8.750000 0.000000 0
8.875000 0.000000 0
9.000000 0.000000 0
9.125000 0.000000 0
9.250000 0.000000 0
9.375000 0.000000 0
9.500000 0.000000 0
9.625000 0.000000 0
9.750000 0.000000 0
9.875000 0.000000 0
10.000000 0.000000 0
0.000000 0.080000 0
0.125000 0.080000 0
0.250000 0.080000 0
0.375000 0.080000 0
0.500000 0.080000 0
0.625000 0.080000 0
0.750000 0.080000 0
0.875000 0.080000 0
1.000000 0.080000 0
1.125000 0.080000 0
1.250000 0.080000 0
1.375000 0.080000 0
1.500000 0.080000 0
1.625000 0.080000 0
1.750000 0.080000 0
1.875000 0.080000 0
2.000000 0.080000 0
2.125000 0.080000 0
2.250000 0.080000 0
2.375000 0.080000 0
2.500000 0.080000 0
2.625000 0.080000 0
2.750000 0.080000 0
2.875000 0.080000 0
3.000000 0.080000 0
3.125000 0.080000 0
3.250000 0.080000 0
3.375000 0.080000 0
3.500000 0.080000 0
3.625000 0.080000 0
3.750000 0.080000 0
3.875000 0.080000 0
4.000000 0.080000 0
4.125000 0.080000 0
4.250000 0.080000 0
4.375000 0.080000 0
4.500000 0.080000 0
4.625000 0.080000 0
4.750000 0.080000 0
4.875000 0.080000 0
5.000000 0.080000 0
5.125000 0.080000 0
5.250000 0.080000 0
5.375000 0.080000 0
5.500000 0.080000 0
5.625000 0.080000 0
5.750000 0.080000 0
5.875000 0.080000 0
6.000000 0.080000 0
6.125000 0.080000 0
6.250000 0.080000 0
6.375000 0.080000 0
6.500000 0.080000 0
6.625000 0.080000 0
6.750000 0.080000 0
6.875000 0.080000 0
7.000000 0.080000 0
7.125000 0.080000 0
7.250000 0.080000 0
7.375000 0.080000 0
7.500000 0.080000 0
7.625000 0.080000 0
7.750000 0.080000 0
7.875000 0.080000 0
8.000000 0.080000 0
8.125000 0.080000 0
8.250000 0.080000 0
8.375000 0.080000 0
8.500000 0.080000 0
8.625000 0.080000 0
8.750000 0.080000 0
8.875000 0.080000 0
9.000000 0.080000 0
9.125000 0.080000 0
9.250000 0.080000 0
9.375000 0.080000 0
9.500000 0.080000 0
9.625000 0.080000 0
9.750000 0.080000 0
9.875000 0.080000 0
10.000000 0.080000 0
0.000000 0.160000 0
0.125000 0.160000 0
0.250000 0.160000 0
0.375000 0.160000 0
0.500000 0.160000 0
0.625000 0.160000 0
0.750000 0.160000 0
0.875000 0.160000 0
1.000000 0.160000 0
1.125000 0.160000 0
1.250000 0.160000 0
1.375000 0.160000 0
1.500000 0.160000 0
1.625000 0.160000 0
1.750000 0.160000 0
1.875000 0.160000 0
2.000000 0.160000 0
2.125000 0.160000 0
2.250000 0.160000 0
2.375000 0.160000 0
2.500000 0.160000 0
2.625000 0.160000 0
2.750000 0.160000 0
2.875000 0.160000 0
3.000000 0.160000 0
3.125000 0.160000 0
3.250000 0.160000 0
3.375000 0.160000 0
3.500000 0.160000 0
3.625000 0.160000 0
3.750000 0.160000 0
3.875000 0.160000 0
4.000000 0.160000 0
4.125000 0.160000 0
4.250000 0.160000 0
4.375000 0.160000 0
4.500000 0.160000 0
4.625000 0.160000 0
4.750000 0.160000 0
4.875000 0.160000 0
5.000000 0.160000 0
5.125000 0.160000 0
5.250000 0.160000 0
5.375000 0.160000 0
5.500000 0.160000 0
5.625000 0.160000 0
5.750000 0.160000 0
5.875000 0.160000 0
6.000000 0.160000 0
6.125000 0.160000 0
6.250000 0.160000 0
6.375000 0.160000 0
6.500000 0.160000 0
6.625000 0.160000 0
6.750000 0.160000 0
6.875000 0.160000 0
7.000000 0.160000 0
7.125000 0.160000 0
7.250000 0.160000 0
7.375000 0.160000 0
7.500000 0.160000 0
7.625000 0.160000 0
7.750000 0.160000 0
7.875000 0.160000 0
8.000000 0.160000 0
8.125000 0.160000 0
8.250000 0.160000 0
8.375000 0.160000 0
8.500000 0.160000 0
8.625000 0.160000 0
8.750000 0.160000 0
8.875000 0.160000 0
9.000000 0.160000 0
9.125000 0.160000 0
9.250000 0.160000 0
9.375000 0.160000 0
9.500000 0.160000 0
9.625000 0.160000 0
9.750000 0.160000 0
9.875000 0.160000 0
10.000000 0.160000 0
0.000000 0.240000 0
0.125000 0.240000 0
0.250000 0.240000 0
0.375000 0.240000 0
0.500000 0.240000 0
0.625000 0.240000 0
0.750000 0.240000 0
0.875000 0.240000 0
1.000000 0.240000 0
1.125000 0.240000 0
1.250000 0.240000 0
1.375000 0.240000 0
1.500000 0.240000 0
1.625000 0.240000 0
1.750000 0.240000 0
1.875000 0.240000 0
2.000000 0.240000 0
2.125000 0.240000 0
2.250000 0.240000 0
2.375000 0.240000 0
2.500000 0.240000 0
2.625000 0.240000 0
2.750000 0.240000 0
2.875000 0.240000 0
3.000000 0.240000 0
3.125000 0.240000 0
3.250000 0.240000 0
3.375000 0.240000 0
3.500000 0.240000 0
3.625000 0.240000 0
3.750000 0.240000 0
3.875000 0.240000 0
4.000000 0.240000 0
4.125000 0.240000 0
4.250000 0.240000 0
4.375000 0.240000 0
4.500000 0.240000 0
4.625000 0.240000 0
4.750000 0.240000 0
4.875000 0.240000 0
5.000000 0.240000 0
5.125000 0.240000 0
5.250000 0.240000 0
5.375000 0.240000 0
5.500000 0.240000 0
5.625000 0.240000 0
5.750000 0.240000 0
5.875000 0.240000 0
6.000000 0.240000 0
6.125000 0.240000 0
6.250000 0.240000 0
6.375000 0.240000 0
6.500000 0.240000 0
6.625000 0.240000 0
6.750000 0.240000 0
6.875000 0.240000 0
7.000000 0.240000 0
7.125000 0.240000 0
7.250000 0.240000 0
7.375000 0.240000 0
7.500000 0.240000 0
7.625000 0.240000 0
7.750000 0.240000 0
7.875000 0.240000 0
8.000000 0.240000 0
8.125000 0.240000 0
8.250000 0.240000 0
8.375000 0.240000 0
8.500000 0.240000 0
8.625000 0.240000 0
8.750000 0.240000 0
8.875000 0.240000 0
9.000000 0.240000 0
9.125000 0.240000 0
9.250000 0.240000 0
9.375000 0.240000 0
9.500000 0.240000 0
9.625000 0.240000 0
9.750000 0.240000 0
9.875000 0.240000 0
10.000000 0.240000 0
0.000000 0.320000 0
0.125000 0.320000 0
0.250000 0.320000 0
0.375000 0.320000 0
0.500000 0.320000 0
0.625000 0.320000 0
0.750000 0.320000 0
0.875000 0.320000 0
1.000000 0.320000 0
1.125000 0.320000 0
1.250000 0.320000 0
1.375000 0.320000 0
1.500000 0.320000 0
1.625000 0.320000 0
1.750000 0.320000 0
1.875000 0.320000 0
2.000000 0.320000 0
2.125000 0.320000 0
2.250000 0.320000 0
2.375000 0.320000 0
2.500000 0.320000 0
2.625000 0.320000 0
2.750000 0.320000 0
2.875000 0.320000 0
3.000000 0.320000 0
3.125000 0.320000 0
3.250000 0.320000 0
3.375000 0.320000 0
3.500000 0.320000 0
3.625000 0.320000 0
3.750000 0.320000 0
3.875000 0.320000 0
4.000000 0.320000 0
4.125000 0.320000 0
4.250000 0.320000 0
4.375000 0.320000 0
4.500000 0.320000 0
4.625000 0.320000 0
4.750000 0.320000 0
4.875000 0.320000 0
5.000000 0.320000 0
5.125000 0.320000 0
5.250000 0.320000 0
5.375000 0.320000 0
5.500000 0.320000 0
5.625000 0.320000 0
5.750000 0.320000 0
5.875000 0.320000 0
6.000000 0.320000 0
6.125000 0.320000 0
6.250000 0.320000 0
6.375000 0.320000 0
6.500000 0.320000 0
6.625000 0.320000 0
6.750000 0.320000 0
6.875000 0.320000 0
7.000000 0.320000 0
7.125000 0.320000 0
7.250000 0.320000 0
7.375000 0.320000 0
7.500000 0.320000 0
7.625000 0.320000 0
7.750000 0.320000 0
7.875000 0.320000 0
8.000000 0.320000 0
8.125000 0.320000 0
8.250000 0.320000 0
8.375000 0.320000 0
8.500000 0.320000 0
8.625000 0.320000 0
8.750000 0.320000 0
8.875000 0.320000 0
9.000000 0.320000 0
9.125000 0.320000 0
9.250000 0.320000 0
9.375000 0.320000 0
9.500000 0.320000 0
9.625000 0.320000 0
9.750000 0.320000 0
9.875000 0.320000 0
10.000000 0.320000 0
0.000000 0.400000 0
0.125000 0.400000 0
0.250000 0.400000 0
0.375000 0.400000 0
0.500000 0.400000 0
0.625000 0.400000 0
0.750000 0.400000 0
0.875000 0.400000 0
1.000000 0.400000 0
1.125000 0.400000 0
1.250000 0.400000 0
1.375000 0.400000 0
1.500000 0.400000 0
1.625000 0.400000 0
1.750000 0.400000 0
1.875000 0.400000 0
2.000000 0.400000 0
2.125000 0.400000 0
2.250000 0.400000 0
2.375000 0.400000 0
2.500000 0.400000 0
2.625000 0.400000 0
2.750000 0.400000 0
2.875000 0.400000 0
3.000000 0.400000 0
3.125000 0.400000 0
3.250000 0.400000 0
3.375000 0.400000 0
3.500000 0.400000 0
3.625000 0.400000 0
3.750000 0.400000 0
3.875000 0.400000 0
4.000000 0.400000 0
4.125000 0.400000 0
4.250000 0.400000 0
4.375000 0.400000 0
4.500000 0.400000 0
4.625000 0.400000 0
4.750000 0.400000 0
4.875000 0.400000 0
5.000000 0.400000 0
5.125000 0.400000 0
5.250000 0.400000 0
5.375000 0.400000 0
5.500000 0.400000 0
5.625000 0.400000 0
5.750000 0.400000 0
5.875000 0.400000 0
6.000000 0.400000 0
6.125000 0.400000 0
6.250000 0.400000 0
6.375000 0.400000 0
6.500000 0.400000 0
6.625000 0.400000 0
6.750000 0.400000 0
6.875000 0.400000 0
7.000000 0.400000 0
7.125000 0.400000 0
7.250000 0.400000 0
7.375000 0.400000 0
7.500000 0.400000 0
7.625000 0.400000 0
7.750000 0.400000 0
7.875000 0.400000 0
8.000000 0.400000 0
8.125000 0.400000 0
8.250000 0.400000 0
8.375000 0.400000 0
8.500000 0.400000 0
8.625000 0.400000 0
8.750000 0.400000 0
8.875000 0.400000 0
9.000000 0.400000 0
9.125000 0.400000 0
9.250000 0.400000 0
9.375000 0.400000 0
9.500000 0.400000 0
9.625000 0.400000 0
9.750000 0.400000 0
9.875000 0.400000 0
10.000000 0.400000 0
0.000000 0.480000 0
0.125000 0.480000 0
0.250000 0.480000 0
0.375000 0.480000 0
0.500000 0.480000 0
[...]
POINT_DATA 2106 

VECTORS velocity float
0.500000 0.000000 0
-0.000001 0.000000 0
0.000001 0.000000 0
0.000003 0.000000 0
0.000006 0.000000 0
0.000004 0.000000 0
-0.000006 0.000000 0
-0.000028 0.000000 0
-0.000063 0.000000 0
-0.000109 0.000000 0
-0.000148 0.000000 0
-0.000156 0.000000 0
-0.000129 0.000000 0
-0.000122 0.000000 0
-0.000112 0.000000 0
0.000040 0.000000 0
0.000079 0.000000 0
-0.000389 0.000000 0
-0.000116 0.000000 0
0.000556 0.000000 0
0.000991 0.000000 0
0.001038 0.000000 0
0.000899 0.000000 0
0.000612 0.000000 0
0.000190 0.000000 0
-0.000416 0.000000 0
-0.001061 0.000000 0
-0.002066 0.000000 0
-0.002953 0.000000 0
-0.003644 0.000000 0
-0.004033 0.000000 0
-0.004411 0.000000 0
-0.004716 0.000000 0
-0.004107 0.000000 0
-0.003140 0.000000 0
0.000000 0.000000 0
0.000000 0.000000 0
0.000000 0.000000 0
0.000000 0.000000 0
0.000000 0.000000 0
-0.000599 0.000000 0
-0.001314 0.000000 0
-0.002232 0.000000 0
-0.003382 0.000000 0
-0.004680 0.000000 0
-0.006238 0.000000 0
-0.008256 0.000000 0
-0.010693 0.000000 0
-0.013964 0.000000 0
-0.017216 0.000000 0
-0.020296 0.000000 0
-0.024427 0.000000 0
-0.027081 0.000000 0
-0.031631 0.000000 0
-0.027418 0.000000 0
-0.013787 0.000000 0
0.003449 0.000000 0
0.010646 0.000000 0
0.013088 0.000000 0
0.014228 0.000000 0
0.014703 0.000000 0
0.014369 0.000000 0
0.013345 0.000000 0
0.012315 0.000000 0
0.011457 0.000000 0
0.010659 0.000000 0
0.009832 0.000000 0
0.009011 0.000000 0
0.008374 0.000000 0
0.008341 0.000000 0
0.007450 0.000000 0
0.006245 0.000000 0
0.004641 0.000000 0
0.002686 0.000000 0
0.000503 0.000000 0
-0.001728 0.000000 0
-0.003861 0.000000 0
-0.005472 0.000000 0
-0.006514 0.000000 0
-0.007167 0.000000 0
-0.007432 0.000000 0
1.000000 -0.001770 0
1.006996 -0.006047 0
1.021883 -0.011510 0
1.045727 -0.017974 0
1.080139 -0.025814 0
1.127651 -0.035638 0
1.191907 -0.048379 0
1.278340 -0.063978 0
1.391020 -0.086857 0
1.547015 -0.119300 0
1.760021 -0.170969 0
2.074667 -0.240213 0
2.499926 -0.339255 0
3.117543 -0.453249 0
3.933092 -0.657888 0
5.273314 -0.692179 0
6.137470 -0.450059 0
6.603499 -0.251931 0
6.851471 -0.132556 0
6.975499 -0.063847 0
7.030213 -0.026755 0
7.051339 -0.009528 0
7.057361 -0.001930 0
7.058199 0.002131 0
7.054920 0.008238 0
7.040754 0.021394 0
7.001473 0.047513 0
6.912988 0.095458 0
6.736993 0.173140 0
6.415735 0.277557 0
5.937695 0.415129 0
5.194150 0.570309 0
4.193674 0.733250 0
2.958515 0.886775 0
1.505276 0.896639 0
0.000000 -0.002010 0
0.000000 -0.422436 0
0.000000 0.000000 0
0.000000 -0.081536 0
0.000000 0.000384 0
-0.256718 0.165504 0
-0.519140 0.169817 0
-0.789296 0.175614 0
-1.068709 0.179995 0
-1.352244 0.178825 0
-1.631039 0.169542 0
-1.887759 0.149956 0
-2.102652 0.118482 0
-2.255481 0.070230 0
-2.313884 -0.004591 0
-2.227751 -0.111753 0
-1.945714 -0.263371 0
-1.375681 -0.458578 0
-0.392237 -0.793322 0
1.081833 -1.053752 0
2.902101 -1.506274 0
5.841681 -1.530542 0
7.418070 -0.827184 0
8.126816 -0.354799 0
8.380647 -0.108608 0
8.414087 0.003556 0
8.367465 0.046767 0
8.293317 0.059700 0
8.212716 0.060777 0
8.135029 0.058220 0
8.063215 0.054203 0
7.998713 0.049617 0
7.940662 0.045467 0
7.886831 0.043057 0
7.834569 0.041482 0
7.784593 0.037056 0
7.742570 0.028262 0
7.714186 0.015893 0
7.704691 0.001175 0
7.716400 -0.013716 0
7.748134 -0.026050 0
7.792783 -0.033388 0
7.840686 -0.033605 0
7.882730 -0.028142 0
7.914851 -0.016899 0
7.927034 -0.009320 0
1.000000 -0.004469 0
1.008052 -0.013992 0
1.024006 -0.024778 0
1.048434 -0.037274 0
1.082713 -0.052421 0
1.129287 -0.071521 0
1.191866 -0.096430 0
1.275506 -0.127422 0
1.386613 -0.171941 0
1.534729 -0.236151 0
1.743460 -0.337687 0
2.033739 -0.473528 0
2.443445 -0.667430 0
3.027489 -0.917216 0
3.869033 -1.379683 0
5.371248 -1.410791 0
6.033076 -0.851307 0
6.339411 -0.456949 0
6.496699 -0.238069 0
6.576181 -0.114384 0
6.610771 -0.048526 0
6.623255 -0.017363 0
6.625447 -0.004378 0
6.627153 0.001574 0
6.629580 0.011177 0
6.626506 0.034218 0
6.607040 0.081782 0
6.556814 0.169280 0
6.444194 0.318254 0
6.218064 0.511563 0
5.786556 0.781827 0
5.141562 1.116186 0
4.217412 1.430818 0
3.055038 1.720587 0
1.670088 1.893462 0
0.000000 -0.002869 0
0.000000 -0.966252 0
0.000000 0.000000 0
0.000000 -0.163539 0
0.000000 0.000777 0
-0.255683 0.332276 0
-0.516534 0.340871 0
-0.784343 0.351746 0
-1.061275 0.360308 0
-1.344784 0.359913 0
-1.625054 0.342751 0
-1.882290 0.301854 0
-2.094925 0.235364 0
-2.242410 0.135211 0
-2.290460 -0.017725 0
-2.187510 -0.235607 0
-1.875012 -0.545302 0
-1.268224 -0.994203 0
-0.295301 -1.572786 0
1.056356 -2.108353 0
3.026191 -3.046279 0
5.798361 -2.890196 0
6.826980 -1.462461 0
7.251134 -0.616024 0
7.383618 -0.183827 0
7.386079 0.008463 0
7.368545 0.077319 0
7.340496 0.099066 0
7.308889 0.101332 0
7.278424 0.095708 0
7.249959 0.087270 0
7.225531 0.078462 0
7.203522 0.071632 0
7.181812 0.067927 0
7.158123 0.065460 0
7.131223 0.058908 0
7.105887 0.045089 0
7.086371 0.024271 0
7.077807 -0.001388 0
7.082049 -0.027775 0
7.100460 -0.048857 0
7.125990 -0.059205 0
7.149667 -0.057537 0
7.166453 -0.047437 0
7.171910 -0.028326 0
7.177758 -0.015922 0
1.000000 -0.006918 0
1.007212 -0.021404 0
1.022204 -0.037351 0
1.045168 -0.055544 0
1.077240 -0.077557 0
1.120715 -0.105491 0
1.179298 -0.141956 0
1.257513 -0.188613 0
1.365521 -0.252757 0
1.501035 -0.347679 0
1.691536 -0.490331 0
1.951513 -0.688200 0
2.309718 -0.975251 0
2.827340 -1.365621 0
3.636874 -2.157890 0
5.216945 -2.077163 0
5.470594 -1.069679 0
5.435427 -0.548646 0
5.405338 -0.284085 0
5.399642 -0.136849 0
5.398988 -0.056878 0
5.402599 -0.018917 0
5.400036 -0.004421 0
5.401720 -0.000511 0
5.411279 0.008657 0
5.421244 0.035824 0
5.425061 0.092119 0
5.430242 0.199683 0
5.413955 0.389944 0
5.357630 0.698450 0
5.073317 1.104094 0
4.621614 1.574566 0
3.872812 2.068629 0
2.820072 2.517066 0
1.571418 2.851868 0
0.000000 -0.003395 0
0.000000 -1.492680 0
0.000000 0.000000 0
0.000000 -0.244415 0
0.000000 0.001151 0
-0.247947 0.496098 0
-0.502963 0.508167 0
-0.765245 0.524255 0
-1.036350 0.538684 0
-1.315487 0.539651 0
-1.596384 0.513553 0
-1.858465 0.450681 0
-2.080227 0.348966 0
-2.234963 0.195379 0
-2.283684 -0.039719 0
-2.169159 -0.377632 0
-1.810432 -0.851707 0
-1.186195 -1.469585 0
-0.318718 -2.281046 0
0.942798 -3.179499 0
2.823630 -4.541149 0
5.294977 -3.963039 0
5.346915 -1.756950 0
5.309667 -0.711038 0
5.254993 -0.194964 0
5.200320 0.013212 0
5.242909 0.075949 0
5.298496 0.097889 0
5.347423 0.100512 0
5.391794 0.095944 0
5.426743 0.088064 0
5.458578 0.079346 0
5.486048 0.073456 0
5.510844 0.072122 0
5.528379 0.073868 0
5.528769 0.070497 0
5.520085 0.056977 0
5.503286 0.033873 0
5.487501 0.003950 0
5.480645 -0.028204 0
5.498539 -0.054163 0
5.533664 -0.064871 0
5.574257 -0.059491 0
5.610000 -0.042368 0
5.633541 -0.024125 0
5.641723 -0.017166 0
1.000000 -0.009080 0
1.006115 -0.028196 0
1.020043 -0.049066 0
1.041163 -0.072493 0
1.070386 -0.100767 0
1.109827 -0.136834 0
1.162908 -0.183978 0
1.234209 -0.246602 0
1.332087 -0.327792 0
1.455492 -0.444797 0
1.618093 -0.625989 0
1.822259 -0.869161 0
2.105696 -1.227956 0
2.486834 -1.766592 0
3.105638 -2.909027 0
4.349844 -2.584368 0
3.684981 -0.991131 0
3.122522 -0.415182 0
2.827727 -0.215163 0
2.676609 -0.110316 0
2.612088 -0.050415 0
2.640277 -0.018030 0
2.730105 -0.003812 0
2.833157 -0.005617 0
2.979578 -0.001315 0
3.157769 0.025401 0
3.324805 0.076028 0
3.465003 0.176392 0
3.584683 0.364730 0
3.685827 0.729575 0
3.777192 1.252881 0
3.661994 1.884514 0
3.230398 2.583810 0
2.446241 3.193483 0
1.361239 3.698312 0
0.000000 -0.003525 0
0.000000 -1.972618 0
0.000000 0.000000 0
0.000000 -0.321598 0
0.000000 0.001413 0
-0.241000 0.654186 0
-0.484817 0.671948 0
-0.733895 0.693120 0
-1.000422 0.712470 0
-1.285560 0.718342 0
-1.572979 0.690265 0
-1.853432 0.611520 0
-2.088252 0.476330 0
-2.236248 0.265431 0
-2.274518 -0.059833 0
-2.152963 -0.538481 0
-1.775357 -1.174392 0
-1.175005 -1.948892 0
-0.322541 -2.935333 0
0.769341 -4.119447 0
2.267943 -5.831666 0
4.117139 -4.505090 0
2.757476 -1.471854 0
1.926319 -0.557186 0
1.646492 -0.113836 0
1.649542 0.016206 0
2.032390 0.014496 0
2.198359 0.032186 0
2.323954 0.041630 0
2.451781 0.044952 0
2.575150 0.044537 0
2.674458 0.040516 0
2.780350 0.038192 0
2.901934 0.040845 0
3.033955 0.053998 0
3.163624 0.064225 0
3.272613 0.061407 0
3.384568 0.045134 0
3.517786 0.013111 0
3.667400 -0.034831 0
3.819605 -0.082780 0
3.978584 -0.107654 0
4.128379 -0.106383 0
4.248857 -0.085370 0
4.333696 -0.048619 0
4.350642 -0.026734 0
1.000000 -0.010827 0
1.004348 -0.034226 0
1.017401 -0.059778 0
1.036245 -0.087760 0
1.061848 -0.121498 0
1.096204 -0.164702 0
1.142378 -0.221557 0
1.204769 -0.296884 0
1.287269 -0.394374 0
1.398898 -0.530719 0
1.529468 -0.725059 0
1.674966 -1.000263 0
1.865871 -1.400576 0
2.066428 -2.005581 0
2.314673 -3.350214 0
2.010384 -2.447938 0
-0.008033 -0.284190 0
-0.005043 0.000000 0
-0.000677 0.001303 0
0.385683 0.001164 0
0.439798 -0.033622 0
0.609735 -0.094443 0
0.873096 -0.127861 0
1.113056 -0.160170 0
1.406582 -0.199091 0
1.743285 -0.185117 0
2.047828 -0.104507 0
2.262677 0.033365 0
2.414925 0.248621 0
2.493981 0.575248 0
2.630201 1.119352 0
2.669194 1.924518 0
2.498210 2.846714 0
1.977048 3.713332 0
1.105057 4.417466 0
0.000000 -0.003589 0
0.000000 -2.364069 0
0.000000 0.000000 0
0.000000 -0.398167 0
0.000000 0.001649 0
-0.227909 0.806394 0
-0.462600 0.823626 0
-0.708206 0.854249 0
-0.968795 0.891757 0
-1.250579 0.906094 0
-1.548878 0.876998 0
-1.829720 0.780463 0
-2.055899 0.593976 0
-2.176200 0.314597 0
-2.186148 -0.093014 0
-2.047222 -0.697088 0
-1.693725 -1.477593 0
-1.159453 -2.399380 0
-0.382344 -3.525420 0
0.483659 -4.837401 0
1.465834 -6.683733 0
1.893366 -4.276332 0
-0.012021 -0.354817 0
-0.017357 0.000000 0
-0.016966 -0.017817 0
-0.229104 -0.233753 0
0.015940 -0.275285 0
0.214266 -0.088702 0
0.388177 -0.061669 0
0.559779 -0.064812 0
0.734977 -0.054440 0
0.899901 -0.051973 0
1.065963 -0.072119 0
1.234804 -0.090175 0
1.425777 -0.093603 0
1.647843 -0.082235 0
1.886937 -0.084417 0
2.134031 -0.123028 0
2.385400 -0.177053 0
2.651643 -0.221359 0
2.901988 -0.253311 0
3.127975 -0.262477 0
3.309475 -0.232456 0
3.424300 -0.173762 0
3.492939 -0.089258 0
3.508191 -0.038897 0
1.000000 -0.011859 0
1.000986 -0.039326 0
1.014296 -0.069477 0
1.030421 -0.100936 0
1.051673 -0.139138 0
1.080000 -0.188370 0
1.118169 -0.253456 0
1.169719 -0.339328 0
1.237707 -0.452031 0
1.326298 -0.599801 0
1.425708 -0.802669 0
1.528481 -1.084455 0
1.617467 -1.478488 0
1.647358 -2.053821 0
1.456364 -2.873155 0
0.181881 -0.000527 0
-1.162791 1.673707 0
-0.728953 0.000000 0
-0.506717 0.068899 0
0.000000 0.000213 0
0.248224 -0.193268 0
0.455732 -0.295336 0
0.724695 -0.325933 0
1.039435 -0.347044 0
1.322868 -0.404657 0
1.607905 -0.384992 0
1.904893 -0.256379 0
2.114327 -0.058547 0
2.206092 0.216699 0
2.187022 0.591802 0
2.107427 1.140749 0
2.022305 1.968992 0
1.899324 3.026787 0
1.522338 4.085105 0
0.885275 4.963627 0
0.000000 -0.003310 0
0.000000 -2.679641 0
0.000000 0.000000 0
0.000000 -0.467090 0
0.000000 0.001793 0
-0.210885 0.950263 0
-0.431337 0.979346 0
-0.672559 1.017092 0
-0.931297 1.059596 0
-1.184540 1.089602 0
-1.478699 1.060922 0
-1.740315 0.936021 0
-1.955987 0.698084 0
-2.076845 0.348798 0
-2.055102 -0.142371 0
-1.864596 -0.853625 0
-1.565746 -1.742557 0
-1.107030 -2.788169 0
-0.450212 -3.986917 0
0.177823 -5.302274 0
0.718555 -6.733871 0
0.227083 -0.025500 0
-0.604409 3.711095 0
0.061724 0.000000 0
0.261242 0.157650 0
0.000000 -0.003869 0
-0.110378 -0.276546 0
-0.017629 -0.206037 0
0.113702 -0.179489 0
0.250311 -0.176990 0
0.392115 -0.173132 0
0.553481 -0.171306 0
0.710104 -0.176137 0
0.855143 -0.189427 0
1.008472 -0.210338 0
1.181135 -0.230908 0
1.382297 -0.249744 0
1.589496 -0.273873 0
1.778803 -0.318151 0
1.964656 -0.365437 0
2.143996 -0.387624 0
2.292332 -0.368437 0
2.398477 -0.296021 0
2.426800 -0.202777 0
2.412587 -0.102300 0
2.421222 -0.046156 0
1.000000 -0.011454 0
0.998423 -0.043369 0
1.009763 -0.078613 0
1.023434 -0.111678 0
1.040350 -0.153226 0
1.062099 -0.207256 0
1.091371 -0.278973 0
1.131241 -0.373385 0
1.183446 -0.494582 0
1.245016 -0.651036 0
1.313020 -0.854452 0
1.361590 -1.122985 0
1.375847 -1.476653 0
1.267368 -1.902471 0
0.886478 -2.412305 0
0.000000 -0.000281 0
0.000000 1.347797 0
0.000000 0.000000 0
0.000000 0.158787 0
0.000000 0.000324 0
0.255305 -0.324749 0
0.455302 -0.399381 0
0.610099 -0.501426 0
0.909330 -0.542996 0
1.176870 -0.562908 0
1.435679 -0.557610 0
1.710291 -0.428612 0
1.965123 -0.159398 0
2.056020 0.202100 0
2.013204 0.638398 0
1.848533 1.224775 0
1.657835 2.057708 0
1.494618 3.166698 0
1.210383 4.362327 0
0.699967 5.391767 0
0.000000 -0.003363 0
0.000000 -2.930422 0
0.000000 0.000000 0
0.000000 -0.533167 0
0.000000 0.001624 0
-0.193387 1.082463 0
-0.391332 1.119105 0
-0.607754 1.174230 0
-0.854934 1.219432 0
-1.103778 1.256439 0
-1.360193 1.232702 0
-1.600929 1.085934 0
-1.797388 0.809362 0
-1.912331 0.378038 0
-1.870226 -0.228847 0
-1.664337 -1.010269 0
-1.375529 -1.962427 0
-0.981243 -3.113314 0
-0.484902 -4.347718 0
-0.034956 -5.585405 0
0.254625 -6.715252 0
0.000000 -0.025452 0
0.000000 3.581518 0
0.000000 0.000000 0
0.000000 0.149693 0
0.000000 -0.002888 0
-0.010689 -0.271283 0
0.022880 -0.232104 0
0.076096 -0.233141 0
0.143117 -0.242987 0
0.224132 -0.248460 0
0.324062 -0.255477 0
0.439977 -0.265174 0
0.562489 -0.281121 0
0.690386 -0.302229 0
0.815298 -0.321474 0
0.936799 -0.345759 0
1.059847 -0.376782 0
1.162745 -0.417146 0
1.245236 -0.455073 0
1.309847 -0.463014 0
1.344232 -0.425334 0
1.354224 -0.318507 0
1.336931 -0.182783 0
1.136974 -0.085679 0
1.140701 -0.049972 0
1.000000 -0.010845 0
0.999602 -0.045569 0
1.005622 -0.085480 0
1.016376 -0.120509 0
1.028590 -0.163880 0
1.043425 -0.221019 0
1.063438 -0.297703 0
1.091366 -0.398252 0
1.127787 -0.524843 0
1.167602 -0.682725 0
1.202504 -0.877273 0
1.208011 -1.124661 0
1.172837 -1.418182 0
0.999157 -1.740622 0
0.648811 -2.062036 0
0.000000 0.000150 0
0.000000 1.107036 0
0.000000 0.000000 0
0.000000 0.233121 0
0.000000 0.001045 0
0.193963 -0.484654 0
0.414941 -0.522400 0
0.583327 -0.616507 0
0.762431 -0.709774 0
1.036925 -0.741517 0
1.307310 -0.726377 0
1.551569 -0.595219 0
1.801943 -0.279809 0
1.965481 0.185932 0
1.937903 0.724598 0
1.724430 1.368190 0
1.468749 2.195502 0
1.235364 3.313161 0
0.986229 4.593686 0
0.560478 5.738277 0
0.000000 -0.004376 0
0.000000 -3.128689 0
0.000000 0.000000 0
0.000000 -0.591020 0
0.000000 0.001640 0
-0.168326 1.200728 0
-0.344072 1.244547 0
-0.533756 1.313804 0
-0.754662 1.377058 0
-1.003931 1.412975 0
-1.207114 1.379106 0
-1.413546 1.215833 0
-1.571130 0.897388 0
-1.649497 0.395421 0
-1.610774 -0.301080 0
-1.425644 -1.170224 0
-1.139531 -2.179729 0
-0.775706 -3.358163 0
-0.465222 -4.592534 0
-0.157624 -5.775564 0
0.040973 -6.756235 0
0.000000 -0.024011 0
0.000000 3.549619 0
0.000000 0.000000 0
0.000000 0.152791 0
0.000000 -0.001874 0
-0.025733 -0.291173 0
0.004369 -0.261570 0
0.037330 -0.256431 0
0.073337 -0.271724 0
0.110542 -0.288927 0
0.156721 -0.309437 0
0.214474 -0.328721 0
0.279016 -0.349679 0
0.349891 -0.372126 0
0.422101 -0.388603 0
0.485966 -0.406246 0
0.514238 -0.418469 0
0.517267 -0.436791 0
0.508351 -0.459573 0
0.488706 -0.450971 0
0.436669 -0.396828 0
0.335624 -0.291340 0
0.216845 -0.063728 0
0.041455 0.023297 0
0.042921 -0.050942 0
1.000000 -0.011194 0
1.000294 -0.046960 0
1.001547 -0.089345 0
1.009748 -0.126374 0
1.017318 -0.170534 0
1.025647 -0.229555 0
1.036922 -0.309652 0
1.053205 -0.414565 0
1.075827 -0.543369 0
1.095815 -0.698851 0
1.105308 -0.880310 0
1.081885 -1.103995 0
1.003233 -1.342983 0
0.815110 -1.567091 0
0.481219 -1.772842 0
0.000000 0.000047 0
0.000000 0.932884 0
0.000000 0.000000 0
0.000000 0.283618 0
0.000000 0.001024 0
0.172996 -0.590304 0
0.341679 -0.648570 0
0.515950 -0.723815 0
0.663779 -0.833294 0
0.877321 -0.911627 0
1.126073 -0.886978 0
1.375923 -0.745173 0
1.604269 -0.424297 0
1.810452 0.115090 0
1.826641 0.792674 0
1.627702 1.525038 0
1.344999 2.370715 0
1.072818 3.475514 0
0.816053 4.794258 0
0.464466 6.022958 0
0.000000 -0.005407 0
0.000000 -3.291174 0
0.000000 0.000000 0
0.000000 -0.641051 0
0.000000 0.001478 0
-0.141498 1.302681 0
-0.289426 1.352987 0
-0.450572 1.437015 0
-0.639646 1.520351 0
-0.849266 1.546015 0
-1.018158 1.494862 0
-1.170717 1.318912 0
-1.282262 0.960377 0
-1.328480 0.403417 0
-1.284115 -0.372105 0
-1.095372 -1.311857 0
-0.834621 -2.378380 0
-0.564397 -3.544865 0
-0.372992 -4.743283 0
-0.174165 -5.909362 0
-0.039647 -6.816124 0
0.000000 -0.021970 0
0.000000 3.558773 0
0.000000 0.000000 0
0.000000 0.134828 0
0.000000 -0.001271 0
-0.022214 -0.274062 0
-0.033550 -0.272455 0
-0.033616 -0.277272 0
-0.020163 -0.289834 0
-0.001386 -0.301817 0
0.020860 -0.321984 0
0.034337 -0.343432 0
0.050146 -0.367779 0
0.050775 -0.393794 0
0.044783 -0.408553 0
0.013546 -0.404718 0
-0.038304 -0.396806 0
-0.035472 -0.413369 0
-0.091726 -0.436784 0
-0.172885 -0.417128 0
-0.264218 -0.327353 0
-0.383441 -0.177810 0
-0.504040 0.005494 0
-0.429328 0.025642 0
-0.429983 -0.051868 0
1.000000 -0.011028 0
1.000017 -0.046552 0
0.998838 -0.091528 0
1.001884 -0.130599 0
1.006391 -0.174052 0
1.009465 -0.233562 0
1.014164 -0.315337 0
1.020501 -0.423148 0
1.032142 -0.552110 0
1.036353 -0.701590 0
1.018415 -0.868355 0
0.970836 -1.059330 0
0.858197 -1.247442 0
0.663429 -1.406529 0
0.374914 -1.540363 0
0.000000 -0.000005 0
0.000000 0.798900 0
0.000000 0.000000 0
0.000000 0.343945 0
0.000000 0.001157 0
0.147089 -0.703322 0
0.292691 -0.741887 0
0.434301 -0.822646 0
0.593673 -0.941047 0
0.761971 -1.037381 0
0.978960 -1.045478 0
1.209674 -0.901260 0
1.421208 -0.557904 0
1.610930 0.043618 0
1.671751 0.841563 0
1.520965 1.676445 0
1.238951 2.550632 0
0.972460 3.651691 0
0.695099 4.983035 0
0.393843 6.260555 0
0.000000 -0.006036 0
0.000000 -3.427609 0
0.000000 0.000000 0
0.000000 -0.681981 0
0.000000 0.001246 0
-0.110969 1.385973 0
-0.227310 1.442361 0
-0.354910 1.537952 0
-0.498903 1.632229 0
-0.648768 1.655229 0
-0.782317 1.584842 0
-0.878232 1.384867 0
-0.943081 0.998364 0
-0.961603 0.396614 0
-0.876635 -0.450262 0
-0.684396 -1.457893 0
-0.483718 -2.519546 0
-0.336673 -3.653598 0
-0.220175 -4.842276 0
-0.118630 -5.988897 0
-0.048487 -6.867693 0
0.000000 -0.019804 0
0.000000 3.579197 0
0.000000 0.000000 0
0.000000 0.139540 0
0.000000 -0.000896 0
-0.012550 -0.269684 0
-0.030681 -0.254263 0
-0.053423 -0.264990 0
-0.075258 -0.292341 0
-0.088569 -0.315173 0
-0.094373 -0.332291 0
-0.102822 -0.347455 0
-0.119820 -0.360191 0
-0.162069 -0.368684 0
-0.219400 -0.364767 0
-0.265353 -0.353061 0
-0.248271 -0.387088 0
-0.310353 -0.402591 0
-0.375674 -0.371619 0
-0.478582 -0.340567 0
-0.576467 -0.262063 0
-0.631129 -0.137844 0
-0.625140 -0.034351 0
-0.514437 -0.024089 0
-0.517598 -0.050090 0
1.000000 -0.011201 0
1.000227 -0.046210 0
0.997466 -0.090537 0
0.997244 -0.131205 0
0.996984 -0.175382 0
0.995740 -0.234527 0
0.998056 -0.316711 0
0.997712 -0.426068 0
0.998483 -0.553511 0
0.983123 -0.690063 0
0.946669 -0.838376 0
0.869034 -1.001451 0
0.742130 -1.146239 0
0.552992 -1.257787 0
0.301855 -1.348244 0
0.000000 -0.000046 0
0.000000 0.692844 0
0.000000 0.000000 0
0.000000 0.377900 0
0.000000 0.001174 0
0.108396 -0.777619 0
0.219575 -0.832382 0
0.346777 -0.916440 0
0.476699 -1.042999 0
0.634107 -1.158206 0
0.810793 -1.173504 0
1.008018 -1.028208 0
1.206023 -0.681097 0
1.385255 -0.045253 0
1.452304 0.850256 0
1.373038 1.802034 0
1.135160 2.721763 0
0.883123 3.823583 0
0.612368 5.164577 0
0.336693 6.467826 0
0.000000 -0.006041 0
0.000000 -3.543870 0
0.000000 0.000000 0
0.000000 -0.712582 0
0.000000 0.000976 0
-0.077239 1.448172 0
-0.157560 1.509116 0
-0.243088 1.610841 0
-0.333866 1.708427 0
-0.419365 1.727407 0
-0.493063 1.641727 0
-0.536845 1.421808 0
-0.555900 1.013742 0
-0.548575 0.360898 0
-0.416582 -0.549511 0
-0.247945 -1.563317 0
-0.131684 -2.600916 0
-0.056627 -3.713524 0
-0.036597 -4.882824 0
-0.018780 -6.019235 0
-0.015879 -6.892039 0
0.000000 -0.017619 0
0.000000 3.594152 0
0.000000 0.000000 0
0.000000 0.127540 0
0.000000 -0.000515 0
-0.028719 -0.254410 0
-0.045183 -0.246287 0
-0.068284 -0.248733 0
-0.109381 -0.267331 0
-0.148503 -0.289574 0