# vtk DataFile Version 2.0
generated by CFD-lab course output (written by Tobias Neckel) 
ASCII

DATASET STRUCTURED_GRID
DIMENSIONS  81 26 1 
POINTS 2106 float

0.000000 0.000000 0
0.125000 0.000000 0
0.250000 0.000000 0
0.375000 0.000000 0
0.500000 0.000000 0
0.625000 0.000000 0
0.750000 0.000000 0
0.875000 0.000000 0
1.000000 0.000000 0
1.125000 0.000000 0
1.250000 0.000000 0
1.375000 0.000000 0
1.500000 0.000000 0
1.625000 0.000000 0
1.750000 0.000000 0
1.875000 0.000000 0
2.000000 0.000000 0
2.125000 0.000000 0
2.250000 0.000000 0
2.375000 0.000000 0
2.500000 0.000000 0
2.625000 0.000000 0
2.750000 0.000000 0
2.875000 0.000000 0
3.000000 0.000000 0
3.125000 0.000000 0
3.250000 0.000000 0
3.375000 0.000000 0
3.500000 0.000000 0
3.625000 0.000000 0
3.750000 0.000000 0
3.875000 0.000000 0
4.000000 0.000000 0
4.125000 0.000000 0
4.250000 0.000000 0
4.375000 0.000000 0
4.500000 0.000000 0
4.625000 0.000000 0
4.750000 0.000000 0
4.875000 0.000000 0
5.000000 0.000000 0
5.125000 0.000000 0
5.250000 0.000000 0
5.375000 0.000000 0
5.500000 0.000000 0
5.625000 0.000000 0
5.750000 0.000000 0
5.875000 0.000000 0
6.000000 0.000000 0
6.125000 0.000000 0
6.250000 0.000000 0
6.375000 0.000000 0
6.500000 0.000000 0
6.625000 0.000000 0
6.750000 0.000000 0
6.875000 0.000000 0
7.000000 0.000000 0
7.125000 0.000000 0
7.250000 0.000000 0
7.375000 0.000000 0
7.500000 0.000000 0
7.625000 0.000000 0
7.750000 0.000000 0
7.875000 0.000000 0
8.000000 0.000000 0
8.125000 0.000000 0
8.250000 0.000000 0
8.375000 0.000000 0
8.500000 0.000000 0
8.625000 0.000000 0
8.750000 0.000000 0
8.875000 0.000000 0
9.000000 0.000000 0
9.125000 0.000000 0
9.250000 0.000000 0
9.375000 0.000000 0
9.500000 0.000000 0
9.625000 0.000000 0
9.750000 0.000000 0
9.875000 0.000000 0
10.000000 0.000000 0
0.000000 0.080000 0
0.125000 0.080000 0
0.250000 0.080000 0
0.375000 0.080000 0
0.500000 0.080000 0
0.625000 0.080000 0
0.750000 0.080000 0
0.875000 0.080000 0
1.000000 0.080000 0
1.125000 0.080000 0
1.250000 0.080000 0
1.375000 0.080000 0
1.500000 0.080000 0
1.625000 0.080000 0
1.750000 0.080000 0
1.875000 0.080000 0
2.000000 0.080000 0
2.125000 0.080000 0
2.250000 0.080000 0
2.375000 0.080000 0
2.500000 0.080000 0
2.625000 0.080000 0
2.750000 0.080000 0
2.875000 0.080000 0
3.000000 0.080000 0
3.125000 0.080000 0
3.250000 0.080000 0
3.375000 0.080000 0
3.500000 0.080000 0
3.625000 0.080000 0
3.750000 0.080000 0
3.875000 0.080000 0
4.000000 0.080000 0
4.125000 0.080000 0
4.250000 0.080000 0
4.375000 0.080000 0
4.500000 0.080000 0
4.625000 0.080000 0
4.750000 0.080000 0
4.875000 0.080000 0
5.000000 0.080000 0
5.125000 0.080000 0
5.250000 0.080000 0
5.375000 0.080000 0
5.500000 0.080000 0
5.625000 0.080000 0
5.750000 0.080000 0
5.875000 0.080000 0
6.000000 0.080000 0
6.125000 0.080000 0
6.250000 0.080000 0
6.375000 0.080000 0
6.500000 0.080000 0
6.625000 0.080000 0
6.750000 0.080000 0
6.875000 0.080000 0
7.000000 0.080000 0
7.125000 0.080000 0
7.250000 0.080000 0
7.375000 0.080000 0
7.500000 0.080000 0
7.625000 0.080000 0
7.750000 0.080000 0
7.875000 0.080000 0
8.000000 0.080000 0
8.125000 0.080000 0
8.250000 0.080000 0
8.375000 0.080000 0
8.500000 0.080000 0
8.625000 0.080000 0
8.750000 0.080000 0
8.875000 0.080000 0
9.000000 0.080000 0
9.125000 0.080000 0
9.250000 0.080000 0
9.375000 0.080000 0
9.500000 0.080000 0
9.625000 0.080000 0
9.750000 0.080000 0
9.875000 0.080000 0
10.000000 0.080000 0
0.000000 0.160000 0
0.125000 0.160000 0
0.250000 0.160000 0
0.375000 0.160000 0
0.500000 0.160000 0
0.625000 0.160000 0
0.750000 0.160000 0
0.875000 0.160000 0
1.000000 0.160000 0
1.125000 0.160000 0
1.250000 0.160000 0
1.375000 0.160000 0
1.500000 0.160000 0
1.625000 0.160000 0
1.750000 0.160000 0
1.875000 0.160000 0
2.000000 0.160000 0
2.125000 0.160000 0
2.250000 0.160000 0
2.375000 0.160000 0
2.500000 0.160000 0
2.625000 0.160000 0
2.750000 0.160000 0
2.875000 0.160000 0
3.000000 0.160000 0
3.125000 0.160000 0
3.250000 0.160000 0
3.375000 0.160000 0
3.500000 0.160000 0
3.625000 0.160000 0
3.750000 0.160000 0
3.875000 0.160000 0
4.000000 0.160000 0
4.125000 0.160000 0
4.250000 0.160000 0
4.375000 0.160000 0
4.500000 0.160000 0
4.625000 0.160000 0
4.750000 0.160000 0
4.875000 0.160000 0
5.000000 0.160000 0
5.125000 0.160000 0
5.250000 0.160000 0
5.375000 0.160000 0
5.500000 0.160000 0
5.625000 0.160000 0
5.750000 0.160000 0
5.875000 0.160000 0
6.000000 0.160000 0
6.125000 0.160000 0
6.250000 0.160000 0
6.375000 0.160000 0
6.500000 0.160000 0
6.625000 0.160000 0
6.750000 0.160000 0
6.875000 0.160000 0
7.000000 0.160000 0
7.125000 0.160000 0
7.250000 0.160000 0
7.375000 0.160000 0
7.500000 0.160000 0
7.625000 0.160000 0
7.750000 0.160000 0
7.875000 0.160000 0
8.000000 0.160000 0
8.125000 0.160000 0
8.250000 0.160000 0
8.375000 0.160000 0
8.500000 0.160000 0
8.625000 0.160000 0
8.750000 0.160000 0
8.875000 0.160000 0
9.000000 0.160000 0
9.125000 0.160000 0
9.250000 0.160000 0
9.375000 0.160000 0
9.500000 0.160000 0
9.625000 0.160000 0
9.750000 0.160000 0
9.875000 0.160000 0
10.000000 0.160000 0
0.000000 0.240000 0
0.125000 0.240000 0
0.250000 0.240000 0
0.375000 0.240000 0
0.500000 0.240000 0
0.625000 0.240000 0
0.750000 0.240000 0
0.875000 0.240000 0
1.000000 0.240000 0
1.125000 0.240000 0
1.250000 0.240000 0
1.375000 0.240000 0
1.500000 0.240000 0
1.625000 0.240000 0
1.750000 0.240000 0
1.875000 0.240000 0
2.000000 0.240000 0
2.125000 0.240000 0
2.250000 0.240000 0
2.375000 0.240000 0
2.500000 0.240000 0
2.625000 0.240000 0
2.750000 0.240000 0
2.875000 0.240000 0
3.000000 0.240000 0
3.125000 0.240000 0
3.250000 0.240000 0
3.375000 0.240000 0
3.500000 0.240000 0
3.625000 0.240000 0
3.750000 0.240000 0
3.875000 0.240000 0
4.000000 0.240000 0
4.125000 0.240000 0
4.250000 0.240000 0
4.375000 0.240000 0
4.500000 0.240000 0
4.625000 0.240000 0
4.750000 0.240000 0
4.875000 0.240000 0
5.000000 0.240000 0
5.125000 0.240000 0
5.250000 0.240000 0
5.375000 0.240000 0
5.500000 0.240000 0
5.625000 0.240000 0
5.750000 0.240000 0
5.875000 0.240000 0
6.000000 0.240000 0
6.125000 0.240000 0
6.250000 0.240000 0
6.375000 0.240000 0
6.500000 0.240000 0
6.625000 0.240000 0
6.750000 0.240000 0
6.875000 0.240000 0
7.000000 0.240000 0
7.125000 0.240000 0
7.250000 0.240000 0
7.375000 0.240000 0
7.500000 0.240000 0
7.625000 0.240000 0
7.750000 0.240000 0
7.875000 0.240000 0
8.000000 0.240000 0
8.125000 0.240000 0
8.250000 0.240000 0
8.375000 0.240000 0
8.500000 0.240000 0
8.625000 0.240000 0
8.750000 0.240000 0
8.875000 0.240000 0
9.000000 0.240000 0
9.125000 0.240000 0
9.250000 0.240000 0
9.375000 0.240000 0
9.500000 0.240000 0
9.625000 0.240000 0
9.750000 0.240000 0
9.875000 0.240000 0
10.000000 0.240000 0
0.000000 0.320000 0
0.125000 0.320000 0
0.250000 0.320000 0
0.375000 0.320000 0
0.500000 0.320000 0
0.625000 0.320000 0
0.750000 0.320000 0
0.875000 0.320000 0
1.000000 0.320000 0
1.125000 0.320000 0
1.250000 0.320000 0
1.375000 0.320000 0
1.500000 0.320000 0
1.625000 0.320000 0
1.750000 0.320000 0
1.875000 0.320000 0
2.000000 0.320000 0
2.125000 0.320000 0
2.250000 0.320000 0
2.375000 0.320000 0
2.500000 0.320000 0
2.625000 0.320000 0
2.750000 0.320000 0
2.875000 0.320000 0
3.000000 0.320000 0
3.125000 0.320000 0
3.250000 0.320000 0
3.375000 0.320000 0
3.500000 0.320000 0
3.625000 0.320000 0
3.750000 0.320000 0
3.875000 0.320000 0
4.000000 0.320000 0
4.125000 0.320000 0
4.250000 0.320000 0
4.375000 0.320000 0
4.500000 0.320000 0
4.625000 0.320000 0
4.750000 0.320000 0
4.875000 0.320000 0
5.000000 0.320000 0
5.125000 0.320000 0
5.250000 0.320000 0
5.375000 0.320000 0
5.500000 0.320000 0
5.625000 0.320000 0
5.750000 0.320000 0
5.875000 0.320000 0
6.000000 0.320000 0
6.125000 0.320000 0
6.250000 0.320000 0
6.375000 0.320000 0
6.500000 0.320000 0
6.625000 0.320000 0
6.750000 0.320000 0
6.875000 0.320000 0
7.000000 0.320000 0
7.125000 0.320000 0
7.250000 0.320000 0
7.375000 0.320000 0
7.500000 0.320000 0
7.625000 0.320000 0
7.750000 0.320000 0
7.875000 0.320000 0
8.000000 0.320000 0
8.125000 0.320000 0
8.250000 0.320000 0
8.375000 0.320000 0
8.500000 0.320000 0
8.625000 0.320000 0
8.750000 0.320000 0
8.875000 0.320000 0
9.000000 0.320000 0
9.125000 0.320000 0
9.250000 0.320000 0
9.375000 0.320000 0
9.500000 0.320000 0
9.625000 0.320000 0
9.750000 0.320000 0
9.875000 0.320000 0
10.000000 0.320000 0
0.000000 0.400000 0
0.125000 0.400000 0
0.250000 0.400000 0
0.375000 0.400000 0
0.500000 0.400000 0
0.625000 0.400000 0
0.750000 0.400000 0
0.875000 0.400000 0
1.000000 0.400000 0
1.125000 0.400000 0
1.250000 0.400000 0
1.375000 0.400000 0
1.500000 0.400000 0
1.625000 0.400000 0
1.750000 0.400000 0
1.875000 0.400000 0
2.000000 0.400000 0
2.125000 0.400000 0
2.250000 0.400000 0
2.375000 0.400000 0
2.500000 0.400000 0
2.625000 0.400000 0
2.750000 0.400000 0
2.875000 0.400000 0
3.000000 0.400000 0
3.125000 0.400000 0
3.250000 0.400000 0
3.375000 0.400000 0
3.500000 0.400000 0
3.625000 0.400000 0
3.750000 0.400000 0
3.875000 0.400000 0
4.000000 0.400000 0
4.125000 0.400000 0
4.250000 0.400000 0
4.375000 0.400000 0
4.500000 0.400000 0
4.625000 0.400000 0
4.750000 0.400000 0
4.875000 0.400000 0
5.000000 0.400000 0
5.125000 0.400000 0
5.250000 0.400000 0
5.375000 0.400000 0
5.500000 0.400000 0
5.625000 0.400000 0
5.750000 0.400000 0
5.875000 0.400000 0
6.000000 0.400000 0
6.125000 0.400000 0
6.250000 0.400000 0
6.375000 0.400000 0
6.500000 0.400000 0
6.625000 0.400000 0
6.750000 0.400000 0
6.875000 0.400000 0
7.000000 0.400000 0
7.125000 0.400000 0
7.250000 0.400000 0
7.375000 0.400000 0
7.500000 0.400000 0
7.625000 0.400000 0
7.750000 0.400000 0
7.875000 0.400000 0
8.000000 0.400000 0
8.125000 0.400000 0
8.250000 0.400000 0
8.375000 0.400000 0
8.500000 0.400000 0
8.625000 0.400000 0
8.750000 0.400000 0
8.875000 0.400000 0
9.000000 0.400000 0
9.125000 0.400000 0
9.250000 0.400000 0
9.375000 0.400000 0
9.500000 0.400000 0
9.625000 0.400000 0
9.750000 0.400000 0
9.875000 0.400000 0
10.000000 0.400000 0
0.000000 0.480000 0
0.125000 0.480000 0
0.250000 0.480000 0
0.375000 0.480000 0
0.500000 0.480000 0
[...]
POINT_DATA 2106 

VECTORS velocity float
0.500000 0.000000 0
-0.018160 0.000000 0
-0.017765 0.000000 0
-0.015960 0.000000 0
-0.012058 0.000000 0
-0.005162 0.000000 0
0.005889 0.000000 0
0.022635 0.000000 0
0.047172 0.000000 0
0.082411 0.000000 0
0.132436 0.000000 0
0.202913 0.000000 0
0.301306 0.000000 0
0.435954 0.000000 0
0.611211 0.000000 0
0.812356 0.000000 0
0.977567 0.000000 0
1.030664 0.000000 0
0.966700 0.000000 0
0.793923 0.000000 0
0.583304 0.000000 0
0.388024 0.000000 0
0.228494 0.000000 0
0.104068 0.000000 0
0.007362 0.000000 0
-0.069223 0.000000 0
-0.131728 0.000000 0
-0.184585 0.000000 0
-0.230978 0.000000 0
-0.273185 0.000000 0
-0.312828 0.000000 0
-0.351046 0.000000 0
-0.388594 0.000000 0
-0.425908 0.000000 0
-0.463138 0.000000 0
-0.500000 0.000000 0
0.000000 0.000000 0
0.000000 0.000000 0
0.000000 0.000000 0
0.000000 0.000000 0
-0.464299 0.000000 0
-0.431790 0.000000 0
-0.399400 0.000000 0
-0.367162 0.000000 0
-0.334869 0.000000 0
-0.302071 0.000000 0
-0.268045 0.000000 0
-0.231738 0.000000 0
-0.191686 0.000000 0
-0.145868 0.000000 0
-0.091494 0.000000 0
-0.024693 0.000000 0
0.059853 0.000000 0
0.169107 0.000000 0
0.310861 0.000000 0
0.489331 0.000000 0
0.691281 0.000000 0
0.859905 0.000000 0
0.926767 0.000000 0
0.886224 0.000000 0
0.744346 0.000000 0
0.566418 0.000000 0
0.402632 0.000000 0
0.272824 0.000000 0
0.176779 0.000000 0
0.107781 0.000000 0
0.058862 0.000000 0
0.024519 0.000000 0
0.000759 0.000000 0
-0.015240 0.000000 0
-0.025476 0.000000 0
-0.031380 0.000000 0
-0.033993 0.000000 0
-0.034089 0.000000 0
-0.032252 0.000000 0
-0.028936 0.000000 0
-0.024496 0.000000 0
-0.019218 0.000000 0
-0.013328 0.000000 0
-0.006968 0.000000 0
0.000000 0.000000 0
1.000000 -0.033604 0
0.964265 -0.067822 0
0.964944 -0.069220 0
0.968299 -0.071188 0
0.975761 -0.074088 0
0.989107 -0.078219 0
1.010611 -0.083983 0
1.043281 -0.091966 0
1.091204 -0.103031 0
1.160061 -0.118428 0
1.257853 -0.139889 0
1.395827 -0.169534 0
1.589297 -0.209017 0
1.856936 -0.256269 0
2.213636 -0.296444 0
2.641417 -0.287123 0
3.003180 -0.189003 0
3.111424 -0.038711 0
2.980038 0.109385 0
2.605250 0.206400 0
2.162062 0.223437 0
1.763005 0.192901 0
1.444103 0.149336 0
1.198196 0.110619 0
1.007832 0.081267 0
0.857085 0.060465 0
0.733849 0.046220 0
0.629400 0.036724 0
0.537513 0.030611 0
0.453734 0.026892 0
0.374881 0.024841 0
0.298723 0.023905 0
0.223778 0.023635 0
0.149179 0.023645 0
0.074572 0.023470 0
0.000000 0.011634 0
0.000000 0.000000 0
0.000000 0.000000 0
0.000000 0.000000 0
0.000000 -0.013775 0
0.072290 -0.027686 0
0.137514 -0.027639 0
0.202335 -0.027208 0
0.266754 -0.026801 0
0.331184 -0.026727 0
0.396511 -0.027319 0
0.464161 -0.028961 0
0.536202 -0.032124 0
0.615512 -0.037420 0
0.706042 -0.045687 0
0.813250 -0.058089 0
0.944728 -0.076219 0
1.111036 -0.102016 0
1.326443 -0.137008 0
1.608339 -0.179364 0
1.970842 -0.215543 0
2.398169 -0.206426 0
2.763569 -0.116719 0
2.899615 0.020605 0
2.815963 0.157547 0
2.505299 0.248435 0
2.128720 0.264902 0
1.792893 0.236089 0
1.533261 0.194350 0
1.343844 0.156765 0
1.208640 0.127720 0
1.113009 0.106487 0
1.045918 0.091195 0
0.999523 0.080153 0
0.968315 0.072103 0
0.948405 0.066165 0
0.937003 0.061739 0
0.932075 0.058412 0
0.932105 0.055896 0
0.935947 0.053992 0
0.942710 0.052554 0
0.951692 0.051481 0
0.962326 0.050689 0
0.974151 0.050089 0
0.986802 0.049450 0
1.000000 0.024538 0
1.000000 -0.040279 0
0.964307 -0.081404 0
0.964418 -0.083811 0
0.966963 -0.087803 0
0.973388 -0.093750 0
0.985390 -0.102185 0
1.005103 -0.113887 0
1.035320 -0.129999 0
1.079818 -0.152215 0
1.143838 -0.183010 0
1.234837 -0.225912 0
1.363655 -0.285548 0
1.546282 -0.366597 0
1.806322 -0.468691 0
2.176774 -0.568249 0
2.686431 -0.567885 0
3.156521 -0.359128 0
3.261127 -0.038964 0
3.127709 0.274536 0
2.651745 0.477853 0
2.140295 0.496401 0
1.717825 0.419280 0
1.401900 0.323256 0
1.165997 0.242667 0
0.985138 0.183196 0
0.841716 0.141473 0
0.723780 0.112918 0
0.623104 0.093791 0
0.533900 0.081371 0
0.452021 0.073718 0
0.374480 0.069414 0
0.299171 0.067373 0
0.224693 0.066721 0
0.150231 0.066733 0
0.075422 0.066828 0
0.000000 0.033417 0
0.000000 0.000000 0
0.000000 0.000000 0
0.000000 0.000000 0
0.000000 -0.033613 0
0.073265 -0.067092 0
0.138862 -0.066561 0
0.203758 -0.065713 0
0.267984 -0.065026 0
0.331928 -0.065066 0
0.396434 -0.066485 0
0.462866 -0.070038 0
0.533195 -0.076649 0
0.610129 -0.087513 0
0.697363 -0.104270 0
0.799972 -0.129227 0
0.925068 -0.165615 0
1.082831 -0.217659 0
1.288124 -0.289663 0
1.562769 -0.381435 0
1.937488 -0.471626 0
2.440368 -0.469976 0
2.902668 -0.279457 0
3.037069 0.012279 0
2.953714 0.302292 0
2.549906 0.493286 0
2.108699 0.512182 0
1.749942 0.439550 0
1.492633 0.347644 0
1.312359 0.269500 0
1.185878 0.210731 0
1.096921 0.168209 0
1.034596 0.137619 0
0.991544 0.115451 0
0.962690 0.099193 0
0.944456 0.087118 0
0.934269 0.078049 0
0.930236 0.071180 0
0.930939 0.065947 0
0.935294 0.061957 0
0.942457 0.058927 0
0.951756 0.056654 0
0.962640 0.054985 0
0.974644 0.053794 0
0.987321 0.052963 0
1.000000 0.026312 0
1.000000 -0.046605 0
0.963038 -0.094347 0
0.961961 -0.097762 0
0.963112 -0.103628 0
0.967816 -0.112406 0
0.977611 -0.124832 0
0.994401 -0.142008 0
1.020634 -0.165566 0
1.059575 -0.197928 0
1.115722 -0.242694 0
1.195515 -0.305165 0
1.308655 -0.392907 0
1.470814 -0.515715 0
1.709797 -0.682361 0
2.082301 -0.881238 0
2.747204 -0.934257 0
3.459281 -0.574994 0
3.507971 -0.036402 0
3.415245 0.485067 0
2.712079 0.825297 0
2.081271 0.808795 0
1.628154 0.653580 0
1.326055 0.490986 0
1.110378 0.366164 0
0.946229 0.277936 0
0.815020 0.217151 0
0.705743 0.175811 0
0.611203 0.148161 0
0.526373 0.130225 0
0.447606 0.119217 0
0.372230 0.113105 0
0.298332 0.110318 0
0.224641 0.109579 0
0.150453 0.109834 0
0.075539 0.110270 0
0.000000 0.055224 0
0.000000 0.000000 0
0.000000 0.000000 0
0.000000 0.000000 0
0.000000 -0.053539 0
0.073581 -0.106716 0
0.139564 -0.105656 0
0.204534 -0.104195 0
0.268418 -0.102994 0
0.331539 -0.102883 0
0.394675 -0.104819 0
0.459095 -0.109908 0
0.526610 -0.119479 0
0.599669 -0.135248 0
0.681540 -0.159559 0
0.776655 -0.195759 0
0.891217 -0.248697 0
1.034376 -0.325256 0
1.220653 -0.434388 0
1.475518 -0.584370 0
1.851035 -0.765590 0
2.498725 -0.811140 0
3.175763 -0.483765 0
3.263326 0.004736 0
3.222243 0.487826 0
2.609107 0.808910 0
2.054076 0.797168 0
1.664570 0.651058 0
1.419568 0.495407 0
1.257949 0.374374 0
1.146848 0.287142 0
1.069018 0.225083 0
1.014467 0.180623 0
0.976830 0.148350 0
0.951788 0.124585 0
0.936280 0.106850 0
0.928076 0.093467 0
0.925513 0.083282 0
0.927326 0.075492 0
0.932536 0.069529 0
0.940370 0.064989 0
0.950205 0.061579 0
0.961525 0.059084 0
0.973885 0.057348 0
0.986861 0.056273 0
1.000000 0.027946 0
1.000000 -0.052467 0
0.961396 -0.106364 0
0.958630 -0.110720 0
0.957855 -0.118273 0
0.960216 -0.129584 0
0.967036 -0.145556 0
0.979910 -0.167545 0
1.000834 -0.197565 0
1.032391 -0.238614 0
1.078042 -0.295197 0
1.142674 -0.374164 0
1.233743 -0.486036 0
1.364074 -0.647060 0
1.558827 -0.883085 0
1.868404 -1.254312 0
2.788718 -1.469877 0
4.033697 -0.864462 0
3.812479 -0.026684 0
3.952539 0.770215 0
2.742489 1.319312 0
1.949563 1.178300 0
1.476713 0.891094 0
1.214898 0.643379 0
1.033742 0.474775 0
0.893913 0.361517 0
0.779422 0.284935 0
0.681746 0.233157 0
0.595394 0.198609 0
0.516422 0.176294 0
0.441852 0.162763 0
0.369414 0.155485 0
0.297438 0.152476 0
0.224812 0.152083 0
0.150978 0.152915 0
0.075904 0.153871 0
0.000000 0.077132 0
0.000000 0.000000 0
0.000000 0.000000 0
0.000000 0.000000 0
0.000000 -0.073656 0
0.074208 -0.146695 0
0.140725 -0.144964 0
0.205807 -0.142620 0
0.269230 -0.140563 0
0.331219 -0.139907 0
0.392473 -0.141911 0
0.454148 -0.147992 0
0.517857 -0.159827 0
0.585710 -0.179545 0
0.660416 -0.210051 0
0.745507 -0.255525 0
0.845803 -0.322215 0
0.968429 -0.419656 0
1.125285 -0.562576 0
1.339091 -0.774773 0
1.653436 -1.115469 0
2.545110 -1.305428 0
3.690208 -0.754217 0
3.541976 -0.000455 0
3.724753 0.740070 0
2.644197 1.261276 0
1.931735 1.137453 0
1.520078 0.866637 0
1.312421 0.629101 0
1.182918 0.465479 0
1.094256 0.353299 0
1.031645 0.274789 0
0.987468 0.218667 0
0.957011 0.177788 0
0.937028 0.147524 0
0.925154 0.124813 0
0.919610 0.107583 0
0.919030 0.094409 0
0.922349 0.084292 0
0.928725 0.076522 0
0.937480 0.070590 0
0.948057 0.066129 0
0.959992 0.062871 0
0.972874 0.060631 0
0.986329 0.059297 0
1.000000 0.029424 0
1.000000 -0.057747 0
0.959394 -0.117192 0
0.954523 -0.122381 0
0.951359 -0.131394 0
0.950845 -0.144874 0
0.954046 -0.163841 0
0.962197 -0.189826 0
0.976765 -0.225091 0
0.999529 -0.272996 0
1.032698 -0.338610 0
1.079126 -0.429789 0
1.142885 -0.559177 0
1.231101 -0.747889 0
1.361008 -1.028729 0
1.591906 -1.691279 0
2.198249 -2.341756 0
1.705324 -1.249008 0
1.484876 0.000000 0
1.651664 1.157127 0
1.370829 2.096063 0
1.499044 1.607693 0
1.238871 1.112616 0
1.070767 0.763497 0
0.940251 0.560817 0
0.831296 0.430157 0
0.737011 0.342632 0
0.653182 0.283511 0
0.576627 0.244106 0
0.504726 0.218824 0
0.435275 0.203804 0
0.366451 0.196175 0
0.296840 0.193621 0
0.225495 0.194147 0
0.152017 0.196006 0
0.076603 0.197765 0
0.000000 0.099231 0
0.000000 0.000000 0
0.000000 0.000000 0
0.000000 0.000000 0
0.000000 -0.094080 0
0.075208 -0.187214 0
0.142519 -0.184580 0
0.207816 -0.180982 0
0.270693 -0.177613 0
0.331275 -0.175896 0
0.390182 -0.177386 0
0.448458 -0.183775 0
0.507506 -0.197006 0
0.569052 -0.219491 0
0.635152 -0.254490 0
0.708254 -0.306698 0
0.791376 -0.383259 0
0.888605 -0.495586 0
1.006748 -0.662604 0
1.161665 -0.912850 0
1.406916 -1.527226 0
1.988682 -2.103278 0
1.513449 -1.107527 0
1.342870 0.000000 0
1.526486 1.082379 0
1.324043 1.977858 0
1.498465 1.537917 0
1.292052 1.068739 0
1.173308 0.732620 0
1.091212 0.535587 0
1.031052 0.405720 0
0.986777 0.315368 0
0.954902 0.250500 0
0.932951 0.202901 0
0.918992 0.167388 0
0.911475 0.140544 0
0.909145 0.120049 0
0.910979 0.104292 0
0.916145 0.092136 0
0.923960 0.082765 0
0.933857 0.075591 0
0.945365 0.070186 0
0.958075 0.066242 0
0.971631 0.063544 0
0.985705 0.061960 0
1.000000 0.030717 0
1.000000 -0.062339 0
0.957075 -0.126604 0
0.949755 -0.132490 0
0.943821 -0.142705 0
0.940005 -0.157940 0
0.939089 -0.179281 0
0.941924 -0.208343 0
0.949415 -0.247488 0
0.962492 -0.300187 0
0.982016 -0.371634 0
1.008580 -0.469873 0
1.042115 -0.608166 0
1.081157 -0.811193 0
1.121922 -1.138212 0
1.161722 -1.814051 0
0.799365 -1.142327 0
-0.500000 0.000000 0
-0.500000 0.000000 0
-0.500000 0.000000 0
0.000000 1.040385 0
0.907790 1.720396 0
0.963319 1.154370 0
0.911285 0.823747 0
0.837991 0.617454 0
0.762739 0.481212 0
0.690387 0.388766 0
0.621706 0.325857 0
0.556019 0.283881 0
0.492086 0.257212 0
0.428492 0.241882 0
0.363852 0.234851 0
0.296984 0.233570 0
0.227072 0.235732 0
0.153857 0.239210 0
0.077780 0.242164 0
0.000000 0.121653 0
0.000000 0.000000 0
0.000000 0.000000 0
0.000000 0.000000 0
0.000000 -0.114955 0
0.076702 -0.228520 0
0.145184 -0.224655 0
0.210873 -0.219313 0
0.273163 -0.214046 0
0.332091 -0.210629 0
0.388231 -0.210912 0
0.442540 -0.216817 0
0.496225 -0.230458 0
0.550628 -0.254385 0
0.607125 -0.291965 0
0.667007 -0.347997 0
0.731284 -0.429778 0
0.800330 -0.549276 0
0.873260 -0.728763 0
0.947339 -1.021976 0
1.022658 -1.635544 0
0.708817 -1.032164 0
-0.500000 0.000000 0
-0.500000 0.000000 0
-0.500000 0.000000 0
0.000000 0.984575 0
0.932325 1.630879 0
1.028105 1.096328 0
1.019211 0.779254 0
0.990565 0.578249 0
0.961390 0.442008 0
0.936879 0.345548 0
0.918320 0.275290 0
0.905661 0.223089 0
0.898357 0.183720 0
0.895709 0.153689 0
0.897007 0.130584 0
0.901592 0.112707 0
0.908880 0.098844 0
0.918360 0.088113 0
0.929591 0.079871 0
0.942189 0.073647 0
0.955818 0.069103 0
0.970176 0.066000 0
0.984987 0.064189 0
1.000000 0.031796 0
1.000000 -0.066153 0
0.954496 -0.134412 0
0.944452 -0.140842 0
0.935459 -0.151979 0
0.928025 -0.168529 0
0.922652 -0.191590 0
0.919807 -0.222769 0
0.919847 -0.264383 0
0.922890 -0.319763 0
0.928531 -0.393766 0
0.935261 -0.493659 0
0.939168 -0.630782 0
0.930569 -0.823903 0
0.883248 -1.105105 0
0.708841 -1.509821 0
0.000000 -0.873423 0
0.000000 0.000000 0
0.000000 0.000000 0
0.000000 0.000000 0
0.000000 0.815670 0
0.556992 1.443591 0
0.731821 1.099780 0
0.760546 0.833160 0
0.736588 0.645482 0
0.693056 0.514404 0
0.642326 0.422875 0
0.589071 0.359696 0
0.534754 0.317453 0
0.479365 0.291022 0
0.422188 0.276627 0
0.362210 0.271242 0
0.298407 0.272182 0
0.230023 0.276855 0
0.156876 0.282705 0
0.079648 0.287386 0
0.000000 0.144582 0
0.000000 0.000000 0
0.000000 0.000000 0
0.000000 0.000000 0
0.000000 -0.136473 0
0.078869 -0.270951 0
0.149040 -0.265407 0
0.215381 -0.257681 0
0.277077 -0.249788 0
0.334125 -0.243911 0
0.387111 -0.242199 0
0.436965 -0.246755 0
0.484742 -0.259767 0
0.531441 -0.283761 0
0.577809 -0.321967 0
0.624058 -0.378850 0
0.669335 -0.460973 0
0.710551 -0.578551 0
0.739370 -0.748547 0
0.732526 -1.000183 0
0.610381 -1.366444 0
0.000000 -0.790922 0
0.000000 0.000000 0
0.000000 0.000000 0
0.000000 0.000000 0
0.000000 0.769040 0
0.602545 1.361070 0
0.807018 1.034890 0
0.873224 0.778409 0
0.890169 0.594441 0
0.889859 0.462047 0
0.884587 0.365033 0
0.879364 0.292715 0
0.876219 0.238044 0
0.875854 0.196247 0
0.878362 0.164011 0
0.883553 0.138989 0
0.891125 0.119488 0
0.900739 0.104276 0
0.912061 0.092446 0
0.924778 0.083326 0
0.938601 0.076423 0
0.953267 0.071375 0
0.968535 0.067930 0
0.984182 0.065921 0
1.000000 0.032630 0
1.000000 -0.069117 0
0.951718 -0.140469 0
0.938753 -0.147285 0
0.926497 -0.159057 0
0.915245 -0.176477 0
0.905232 -0.200604 0
0.896564 -0.232961 0
0.889110 -0.275690 0
0.882289 -0.331775 0
0.874666 -0.405374 0
0.863164 -0.502297 0
0.841398 -0.630592 0
0.795872 -0.800700 0
0.696599 -1.021601 0
0.474680 -1.274403 0
0.000000 -0.701628 0
0.000000 0.000000 0
0.000000 0.000000 0
0.000000 0.000000 0
0.000000 0.668050 0
0.369522 1.230926 0
0.560184 1.013631 0
0.631424 0.810313 0
0.643255 0.650404 0
0.626382 0.531470 0
0.595363 0.445441 0
0.556935 0.385028 0
0.513992 0.344618 0
0.467436 0.319970 0
0.417086 0.307753 0
0.362180 0.305119 0
0.301742 0.309345 0
0.234948 0.317579 0
0.161575 0.326768 0
0.082500 0.333887 0
0.000000 0.168284 0
0.000000 0.000000 0
0.000000 0.000000 0
0.000000 0.000000 0
0.000000 -0.158895 0
0.081954 -0.314963 0
0.154514 -0.307132 0
0.221852 -0.296193 0
0.282966 -0.284774 0
0.337899 -0.275553 0
0.387356 -0.270985 0
0.432326 -0.273295 0
0.473789 -0.284646 0
0.512480 -0.307393 0
0.548630 -0.344405 0
0.581593 -0.399465 0
0.609128 -0.477765 0
0.625916 -0.586501 0
0.620125 -0.735068 0
0.564915 -0.931645 0
0.397901 -1.159277 0
0.000000 -0.637939 0
0.000000 0.000000 0
0.000000 0.000000 0
0.000000 0.000000 0
0.000000 0.626169 0
0.425382 1.152531 0
0.642565 0.944937 0
0.747432 0.747912 0
0.796872 0.589554 0
0.820396 0.467636 0
0.832313 0.374437 0
0.839596 0.302940 0
0.845675 0.247748 0
0.852210 0.204876 0
0.859947 0.171394 0
0.869152 0.145143 0
0.879846 0.124520 0
0.891920 0.108329 0
0.905209 0.095673 0
0.919525 0.085878 0
0.934676 0.078441 0
0.950475 0.072994 0
0.966741 0.069272 0
0.983303 0.067104 0
1.000000 0.033195 0
1.000000 -0.071179 0
0.948807 -0.144672 0
0.932794 -0.151715 0
0.917160 -0.163843 0
0.902001 -0.181705 0
0.887306 -0.206280 0
0.872875 -0.238945 0
0.858170 -0.281576 0
0.842073 -0.336673 0
0.822446 -0.407505 0
0.795321 -0.498180 0
0.753399 -0.613389 0
0.683203 -0.756826 0
0.560149 -0.925172 0
0.343939 -1.089854 0
0.000000 -0.582641 0
0.000000 0.000000 0
0.000000 0.000000 0
0.000000 0.000000 0
0.000000 0.563696 0
0.261892 1.064393 0
0.437492 0.921810 0
0.526677 0.769753 0
0.561729 0.638612 0
0.565561 0.535128 0
0.551498 0.457584 0
0.526713 0.402235 0
0.494774 0.365395 0
0.457123 0.343899 0
0.413906 0.335031 0
0.364465 0.336267 0
0.307721 0.344952 0
0.242594 0.358006 0
0.168622 0.371775 0
0.086751 0.382307 0
0.000000 0.193134 0
0.000000 0.000000 0
0.000000 0.000000 0
0.000000 0.000000 0
0.000000 -0.182572 0
0.086308 -0.361167 0
0.162181 -0.350217 0
0.230937 -0.334982 0
0.291458 -0.318935 0
0.343995 -0.305362 0
0.389521 -0.297022 0
0.429208 -0.296201 0
0.464058 -0.304929 0
0.494644 -0.325257 0
0.520840 -0.359535 0
0.541428 -0.410656 0
0.553392 -0.482201 0
0.550579 -0.578267 0
0.521143 -0.702073 0
0.443066 -0.850543 0
0.279883 -0.997702 0
0.000000 -0.532752 0
0.000000 0.000000 0
0.000000 0.000000 0
0.000000 0.000000 0
0.000000 0.524330 0
0.322878 0.988305 0
0.524131 0.850685 0
0.644365 0.701615 0
0.714217 0.569782 0
0.755721 0.461498 0
0.781973 0.374984 0
0.800356 0.306513 0
0.814979 0.252429 0
0.828106 0.209677 0
0.840960 0.175830 0
0.854170 0.149004 0
0.868025 0.127746 0
0.882623 0.110942 0
0.897952 0.097733 0
0.913943 0.087468 0
0.930495 0.079649 0
0.947496 0.073908 0
0.964825 0.069981 0
0.982365 0.067692 0
1.000000 0.033470 0
1.000000 -0.072309 0
0.945827 -0.146961 0
0.926709 -0.154082 0
0.907663 -0.166301 0
0.888605 -0.184210 0
0.869316 -0.208675 0
0.849344 -0.240887 0
0.827847 -0.282403 0
0.803353 -0.335185 0
0.773343 -0.401578 0
0.733578 -0.484099 0
0.677009 -0.584724 0
0.592187 -0.702859 0
0.461827 -0.830354 0
0.265448 -0.941945 0
0.000000 -0.494580 0
0.000000 0.000000 0
0.000000 0.000000 0
0.000000 0.000000 0
0.000000 0.485315 0
0.195988 0.930654 0
0.350234 0.833923 0
0.444148 0.720687 0
0.493043 0.615555 0
0.512128 0.528227 0
0.512086 0.460702 0
0.499486 0.411929 0
0.477960 0.379957 0
0.449153 0.362728 0
0.413334 0.358249 0
0.369795 0.364449 0
0.317175 0.378864 0
0.253894 0.398240 0
0.178919 0.418216 0
0.092994 0.433529 0
0.000000 0.219662 0
0.000000 0.000000 0
0.000000 0.000000 0
0.000000 0.000000 0
0.000000 -0.207987 0
0.092427 -0.410389 0
0.172820 -0.395152 0
0.243463 -0.374190 0
0.303298 -0.352164 0
0.353043 -0.333099 0
0.394162 -0.320050 0
0.428154 -0.315265 0
0.456156 -0.320530 0
0.478687 -0.337480 0
0.495424 -0.367848 0
0.504865 -0.413571 0
0.503765 -0.476696 0
0.486188 -0.558784 0
0.442096 -0.659100 0
0.356051 -0.770101 0
0.209595 -0.868728 0
0.000000 -0.455375 0
0.000000 0.000000 0
0.000000 0.000000 0
0.000000 0.000000 0
0.000000 0.447350 0
0.259404 0.855878 0
0.438904 0.761152 0
0.561958 0.648293 0
0.643199 0.540400 0
0.697324 0.446474 0
0.734887 0.368171 0
0.762689 0.304216 0
0.784927 0.252489 0
0.804144 0.210846 0
0.821856 0.177402 0
0.838948 0.150594 0
0.855923 0.129157 0
0.873046 0.112088 0
0.890440 0.098594 0
0.908142 0.088059 0
0.926139 0.080008 0
0.944386 0.074082 0
0.962824 0.070022 0
0.981385 0.067653 0
1.000000 0.033437 0
1.000000 -0.072496 0
0.942838 -0.147319 0
0.920623 -0.154379 0
0.898201 -0.166452 0
0.875339 -0.184054 0
0.851646 -0.207927 0
0.826478 -0.239054 0
0.798795 -0.278660 0
0.766933 -0.328177 0
0.728274 -0.389110 0
0.678750 -0.462678 0
0.612209 -0.548972 0
0.519825 -0.645151 0
0.390520 -0.742138 0
0.215199 -0.820476 0
0.000000 -0.425887 0
0.000000 0.000000 0
0.000000 0.000000 0
0.000000 0.000000 0
0.000000 0.423464 0
0.153388 0.820342 0
0.287732 0.752851 0
0.380104 0.668360 0
0.436621 0.585266 0
0.466587 0.513277 0
0.477882 0.456202 0
0.475982 0.414807 0
0.464197 0.388549 0
0.444122 0.376411 0
0.415988 0.377176 0
0.378904 0.389356 0
0.331046 0.410846 0
0.270021 0.438341 0
0.193719 0.466687 0
0.102130 0.488774 0
0.000000 0.248627 0
0.000000 0.000000 0
0.000000 0.000000 0
0.000000 0.000000 0
0.000000 -0.235816 0
0.101052 -0.463742 0
0.187518 -0.442537 0
0.260492 -0.413927 0
0.319353 -0.384262 0
0.365710 -0.358449 0
0.401806 -0.339762 0
0.429640 -0.330281 0
0.450578 -0.331412 0
0.465181 -0.344280 0
0.473067 -0.369947 0
0.472682 -0.409442 0
0.460939 -0.463517 0
0.432690 -0.531936 0
0.380243 -0.611856 0
0.293761 -0.694830 0
0.165120 -0.763024 0
0.000000 -0.395247 0
0.000000 0.000000 0
0.000000 0.000000 0
0.000000 0.000000 0
0.000000 0.386395 0
0.217723 0.746486 0
0.376821 0.679079 0
0.496701 0.592969 0
0.583315 0.505328 0
0.645738 0.425082 0
0.691830 0.355505 0
0.727331 0.296934 0
0.756143 0.248438 0
0.780827 0.208673 0
0.803031 0.176271 0
0.823799 0.149994 0
0.843781 0.128788 0
0.863376 0.111776 0
0.882816 0.098248 0
0.902233 0.087638 0
0.921687 0.079500 0
0.941201 0.073495 0
0.960772 0.069373 0
0.980380 0.066966 0
1.000000 0.033087 0
1.000000 -0.071746 0
0.939895 -0.145763 0
0.914646 -0.152640 0
0.888951 -0.164359 0