# vtk DataFile Version 2.0
generated by CFD-lab course output (written by Tobias Neckel) 
ASCII

DATASET STRUCTURED_GRID
DIMENSIONS  81 26 1 
POINTS 2106 float

0.000000 0.000000 0
0.125000 0.000000 0
0.250000 0.000000 0
0.375000 0.000000 0
0.500000 0.000000 0
0.625000 0.000000 0
0.750000 0.000000 0
0.875000 0.000000 0
1.000000 0.000000 0
1.125000 0.000000 0
1.250000 0.000000 0
1.375000 0.000000 0
1.500000 0.000000 0
1.625000 0.000000 0
1.750000 0.000000 0
1.875000 0.000000 0
2.000000 0.000000 0
2.125000 0.000000 0
2.250000 0.000000 0
2.375000 0.000000 0
2.500000 0.000000 0
2.625000 0.000000 0
2.750000 0.000000 0
2.875000 0.000000 0
3.000000 0.000000 0
3.125000 0.000000 0
3.250000 0.000000 0
3.375000 0.000000 0
3.500000 0.000000 0
3.625000 0.000000 0
3.750000 0.000000 0
3.875000 0.000000 0
4.000000 0.000000 0
4.125000 0.000000 0
4.250000 0.000000 0
4.375000 0.000000 0
4.500000 0.000000 0
4.625000 0.000000 0
4.750000 0.000000 0
4.875000 0.000000 0
5.000000 0.000000 0
5.125000 0.000000 0
5.250000 0.000000 0
5.375000 0.000000 0
5.500000 0.000000 0
5.625000 0.000000 0
5.750000 0.000000 0
5.875000 0.000000 0
6.000000 0.000000 0
6.125000 0.000000 0
6.250000 0.000000 0
6.375000 0.000000 0
6.500000 0.000000 0
6.625000 0.000000 0
6.750000 0.000000 0
6.875000 0.000000 0
7.000000 0.000000 0
7.125000 0.000000 0
7.250000 0.000000 0
7.375000 0.000000 0
7.500000 0.000000 0
7.625000 0.000000 0
7.750000 0.000000 0
7.875000 0.000000 0
8.000000 0.000000 0
8.125000 0.000000 0
8.250000 0.000000 0
8.375000 0.000000 0
8.500000 0.000000 0
8.625000 0.000000 0
8.750000 0.000000 0
8.875000 0.000000 0
9.000000 0.000000 0
9.125000 0.000000 0
9.250000 0.000000 0
9.375000 0.000000 0
9.500000 0.000000 0
9.625000 0.000000 0
9.750000 0.000000 0
9.875000 0.000000 0
10.000000 0.000000 0
0.000000 0.080000 0
0.125000 0.080000 0
0.250000 0.080000 0
0.375000 0.080000 0
0.500000 0.080000 0
0.625000 0.080000 0
0.750000 0.080000 0
0.875000 0.080000 0
1.000000 0.080000 0
1.125000 0.080000 0
1.250000 0.080000 0
1.375000 0.080000 0
1.500000 0.080000 0
1.625000 0.080000 0
1.750000 0.080000 0
1.875000 0.080000 0
2.000000 0.080000 0
2.125000 0.080000 0
2.250000 0.080000 0
2.375000 0.080000 0
2.500000 0.080000 0
2.625000 0.080000 0
2.750000 0.080000 0
2.875000 0.080000 0
3.000000 0.080000 0
3.125000 0.080000 0
3.250000 0.080000 0
3.375000 0.080000 0
3.500000 0.080000 0
3.625000 0.080000 0
3.750000 0.080000 0
3.875000 0.080000 0
4.000000 0.080000 0
4.125000 0.080000 0
4.250000 0.080000 0
4.375000 0.080000 0
4.500000 0.080000 0
4.625000 0.080000 0
4.750000 0.080000 0
4.875000 0.080000 0
5.000000 0.080000 0
5.125000 0.080000 0
5.250000 0.080000 0
5.375000 0.080000 0
5.500000 0.080000 0
5.625000 0.080000 0
5.750000 0.080000 0
5.875000 0.080000 0
6.000000 0.080000 0
6.125000 0.080000 0
6.250000 0.080000 0
6.375000 0.080000 0
6.500000 0.080000 0
6.625000 0.080000 0
6.750000 0.080000 0
6.875000 0.080000 0
7.000000 0.080000 0
7.125000 0.080000 0
7.250000 0.080000 0
7.375000 0.080000 0
7.500000 0.080000 0
7.625000 0.080000 0
7.750000 0.080000 0
7.875000 0.080000 0
8.000000 0.080000 0
8.125000 0.080000 0
8.250000 0.080000 0
8.375000 0.080000 0
8.500000 0.080000 0
8.625000 0.080000 0
8.750000 0.080000 0
8.875000 0.080000 0
9.000000 0.080000 0
9.125000 0.080000 0
9.250000 0.080000 0
9.375000 0.080000 0
9.500000 0.080000 0
9.625000 0.080000 0
9.750000 0.080000 0
9.875000 0.080000 0
10.000000 0.080000 0
0.000000 0.160000 0
0.125000 0.160000 0
0.250000 0.160000 0
0.375000 0.160000 0
0.500000 0.160000 0
0.625000 0.160000 0
0.750000 0.160000 0
0.875000 0.160000 0
1.000000 0.160000 0
1.125000 0.160000 0
1.250000 0.160000 0
1.375000 0.160000 0
1.500000 0.160000 0
1.625000 0.160000 0
1.750000 0.160000 0
1.875000 0.160000 0
2.000000 0.160000 0
2.125000 0.160000 0
2.250000 0.160000 0
2.375000 0.160000 0
2.500000 0.160000 0
2.625000 0.160000 0
2.750000 0.160000 0
2.875000 0.160000 0
3.000000 0.160000 0
3.125000 0.160000 0
3.250000 0.160000 0
3.375000 0.160000 0
3.500000 0.160000 0
3.625000 0.160000 0
3.750000 0.160000 0
3.875000 0.160000 0
4.000000 0.160000 0
4.125000 0.160000 0
4.250000 0.160000 0
4.375000 0.160000 0
4.500000 0.160000 0
4.625000 0.160000 0
4.750000 0.160000 0
4.875000 0.160000 0
5.000000 0.160000 0
5.125000 0.160000 0
5.250000 0.160000 0
5.375000 0.160000 0
5.500000 0.160000 0
5.625000 0.160000 0
5.750000 0.160000 0
5.875000 0.160000 0
6.000000 0.160000 0
6.125000 0.160000 0
6.250000 0.160000 0
6.375000 0.160000 0
6.500000 0.160000 0
6.625000 0.160000 0
6.750000 0.160000 0
6.875000 0.160000 0
7.000000 0.160000 0
7.125000 0.160000 0
7.250000 0.160000 0
7.375000 0.160000 0
7.500000 0.160000 0
7.625000 0.160000 0
7.750000 0.160000 0
7.875000 0.160000 0
8.000000 0.160000 0
8.125000 0.160000 0
8.250000 0.160000 0
8.375000 0.160000 0
8.500000 0.160000 0
8.625000 0.160000 0
8.750000 0.160000 0
8.875000 0.160000 0
9.000000 0.160000 0
9.125000 0.160000 0
9.250000 0.160000 0
9.375000 0.160000 0
9.500000 0.160000 0
9.625000 0.160000 0
9.750000 0.160000 0
9.875000 0.160000 0
10.000000 0.160000 0
0.000000 0.240000 0
0.125000 0.240000 0
0.250000 0.240000 0
0.375000 0.240000 0
0.500000 0.240000 0
0.625000 0.240000 0
0.750000 0.240000 0
0.875000 0.240000 0
1.000000 0.240000 0
1.125000 0.240000 0
1.250000 0.240000 0
1.375000 0.240000 0
1.500000 0.240000 0
1.625000 0.240000 0
1.750000 0.240000 0
1.875000 0.240000 0
2.000000 0.240000 0
2.125000 0.240000 0
2.250000 0.240000 0
2.375000 0.240000 0
2.500000 0.240000 0
2.625000 0.240000 0
2.750000 0.240000 0
2.875000 0.240000 0
3.000000 0.240000 0
3.125000 0.240000 0
3.250000 0.240000 0
3.375000 0.240000 0
3.500000 0.240000 0
3.625000 0.240000 0
3.750000 0.240000 0
3.875000 0.240000 0
4.000000 0.240000 0
4.125000 0.240000 0
4.250000 0.240000 0
4.375000 0.240000 0
4.500000 0.240000 0
4.625000 0.240000 0
4.750000 0.240000 0
4.875000 0.240000 0
5.000000 0.240000 0
5.125000 0.240000 0
5.250000 0.240000 0
5.375000 0.240000 0
5.500000 0.240000 0
5.625000 0.240000 0
5.750000 0.240000 0
5.875000 0.240000 0
6.000000 0.240000 0
6.125000 0.240000 0
6.250000 0.240000 0
6.375000 0.240000 0
6.500000 0.240000 0
6.625000 0.240000 0
6.750000 0.240000 0
6.875000 0.240000 0
7.000000 0.240000 0
7.125000 0.240000 0
7.250000 0.240000 0
7.375000 0.240000 0
7.500000 0.240000 0
7.625000 0.240000 0
7.750000 0.240000 0
7.875000 0.240000 0
8.000000 0.240000 0
8.125000 0.240000 0
8.250000 0.240000 0
8.375000 0.240000 0
8.500000 0.240000 0
8.625000 0.240000 0
8.750000 0.240000 0
8.875000 0.240000 0
9.000000 0.240000 0
9.125000 0.240000 0
9.250000 0.240000 0
9.375000 0.240000 0
9.500000 0.240000 0
9.625000 0.240000 0
9.750000 0.240000 0
9.875000 0.240000 0
10.000000 0.240000 0
0.000000 0.320000 0
0.125000 0.320000 0
0.250000 0.320000 0
0.375000 0.320000 0
0.500000 0.320000 0
0.625000 0.320000 0
0.750000 0.320000 0
0.875000 0.320000 0
1.000000 0.320000 0
1.125000 0.320000 0
1.250000 0.320000 0
1.375000 0.320000 0
1.500000 0.320000 0
1.625000 0.320000 0
1.750000 0.320000 0
1.875000 0.320000 0
2.000000 0.320000 0
2.125000 0.320000 0
2.250000 0.320000 0
2.375000 0.320000 0
2.500000 0.320000 0
2.625000 0.320000 0
2.750000 0.320000 0
2.875000 0.320000 0
3.000000 0.320000 0
3.125000 0.320000 0
3.250000 0.320000 0
3.375000 0.320000 0
3.500000 0.320000 0
3.625000 0.320000 0
3.750000 0.320000 0
3.875000 0.320000 0
4.000000 0.320000 0
4.125000 0.320000 0
4.250000 0.320000 0
4.375000 0.320000 0
4.500000 0.320000 0
4.625000 0.320000 0
4.750000 0.320000 0
4.875000 0.320000 0
5.000000 0.320000 0
5.125000 0.320000 0
5.250000 0.320000 0
5.375000 0.320000 0
5.500000 0.320000 0
5.625000 0.320000 0
5.750000 0.320000 0
5.875000 0.320000 0
6.000000 0.320000 0
6.125000 0.320000 0
6.250000 0.320000 0
6.375000 0.320000 0
6.500000 0.320000 0
6.625000 0.320000 0
6.750000 0.320000 0
6.875000 0.320000 0
7.000000 0.320000 0
7.125000 0.320000 0
7.250000 0.320000 0
7.375000 0.320000 0
7.500000 0.320000 0
7.625000 0.320000 0
7.750000 0.320000 0
7.875000 0.320000 0
8.000000 0.320000 0
8.125000 0.320000 0
8.250000 0.320000 0
8.375000 0.320000 0
8.500000 0.320000 0
8.625000 0.320000 0
8.750000 0.320000 0
8.875000 0.320000 0
9.000000 0.320000 0
9.125000 0.320000 0
9.250000 0.320000 0
9.375000 0.320000 0
9.500000 0.320000 0
9.625000 0.320000 0
9.750000 0.320000 0
9.875000 0.320000 0
10.000000 0.320000 0
0.000000 0.400000 0
0.125000 0.400000 0
0.250000 0.400000 0
0.375000 0.400000 0
0.500000 0.400000 0
0.625000 0.400000 0
0.750000 0.400000 0
0.875000 0.400000 0
1.000000 0.400000 0
1.125000 0.400000 0
1.250000 0.400000 0
1.375000 0.400000 0
1.500000 0.400000 0
1.625000 0.400000 0
1.750000 0.400000 0
1.875000 0.400000 0
2.000000 0.400000 0
2.125000 0.400000 0
2.250000 0.400000 0
2.375000 0.400000 0
2.500000 0.400000 0
2.625000 0.400000 0
2.750000 0.400000 0
2.875000 0.400000 0
3.000000 0.400000 0
3.125000 0.400000 0
3.250000 0.400000 0
3.375000 0.400000 0
3.500000 0.400000 0
3.625000 0.400000 0
3.750000 0.400000 0
3.875000 0.400000 0
4.000000 0.400000 0
4.125000 0.400000 0
4.250000 0.400000 0
4.375000 0.400000 0
4.500000 0.400000 0
4.625000 0.400000 0
4.750000 0.400000 0
4.875000 0.400000 0
5.000000 0.400000 0
5.125000 0.400000 0
5.250000 0.400000 0
5.375000 0.400000 0
5.500000 0.400000 0
5.625000 0.400000 0
5.750000 0.400000 0
5.875000 0.400000 0
6.000000 0.400000 0
6.125000 0.400000 0
6.250000 0.400000 0
6.375000 0.400000 0
6.500000 0.400000 0
6.625000 0.400000 0
6.750000 0.400000 0
6.875000 0.400000 0
7.000000 0.400000 0
7.125000 0.400000 0
7.250000 0.400000 0
7.375000 0.400000 0
7.500000 0.400000 0
7.625000 0.400000 0
7.750000 0.400000 0
7.875000 0.400000 0
8.000000 0.400000 0
8.125000 0.400000 0
8.250000 0.400000 0
8.375000 0.400000 0
8.500000 0.400000 0
8.625000 0.400000 0
8.750000 0.400000 0
8.875000 0.400000 0
9.000000 0.400000 0
9.125000 0.400000 0
9.250000 0.400000 0
9.375000 0.400000 0
9.500000 0.400000 0
9.625000 0.400000 0
9.750000 0.400000 0
9.875000 0.400000 0
10.000000 0.400000 0
0.000000 0.480000 0
0.125000 0.480000 0
0.250000 0.480000 0
0.375000 0.480000 0
0.500000 0.480000 0
[...]
POINT_DATA 2106 

VECTORS velocity float
0.500000 0.000000 0
0.000001 0.000000 0
0.000002 0.000000 0
0.000003 0.000000 0
0.000003 0.000000 0
0.000003 0.000000 0
0.000004 0.000000 0
0.000005 0.000000 0
0.000008 0.000000 0
0.000012 0.000000 0
0.000019 0.000000 0
0.000033 0.000000 0
0.000060 0.000000 0
0.000113 0.000000 0
0.000199 0.000000 0
0.000211 0.000000 0
-0.000269 0.000000 0
-0.000328 0.000000 0
0.000072 0.000000 0
0.000213 0.000000 0
0.000071 0.000000 0
-0.000023 0.000000 0
-0.000012 0.000000 0
0.000011 0.000000 0
0.000014 0.000000 0
0.000015 0.000000 0
0.000027 0.000000 0
0.000040 0.000000 0
0.000040 0.000000 0
0.000033 0.000000 0
0.000046 0.000000 0
0.000161 0.000000 0
0.000629 0.000000 0
0.000147 0.000000 0
0.000089 0.000000 0
0.000000 0.000000 0
0.000000 0.000000 0
0.000000 0.000000 0
0.000000 0.000000 0
0.000000 0.000000 0
0.000002 0.000000 0
-0.000004 0.000000 0
-0.000013 0.000000 0
-0.000014 0.000000 0
-0.000005 0.000000 0
0.000007 0.000000 0
0.000017 0.000000 0
0.000027 0.000000 0
0.000040 0.000000 0
0.000059 0.000000 0
0.000068 0.000000 0
0.000024 0.000000 0
0.000010 0.000000 0
0.000478 0.000000 0
0.000213 0.000000 0
0.001399 0.000000 0
-0.001827 0.000000 0
-0.000365 0.000000 0
0.000230 0.000000 0
-0.000069 0.000000 0
0.000065 0.000000 0
0.000126 0.000000 0
0.000093 0.000000 0
0.000123 0.000000 0
0.000128 0.000000 0
0.000080 0.000000 0
0.000051 0.000000 0
0.000064 0.000000 0
0.000075 0.000000 0
0.000062 0.000000 0
0.000040 0.000000 0
0.000021 0.000000 0
0.000000 0.000000 0
-0.000022 0.000000 0
-0.000045 0.000000 0
-0.000065 0.000000 0
-0.000079 0.000000 0
-0.000082 0.000000 0
-0.000074 0.000000 0
-0.000060 0.000000 0
-0.000057 0.000000 0
1.000000 -0.001830 0
1.007160 -0.006245 0
1.022525 -0.011904 0
1.047359 -0.018644 0
1.083403 -0.026777 0
1.133082 -0.036767 0
1.199638 -0.049428 0
1.287902 -0.064633 0
1.401415 -0.086786 0
1.556492 -0.117979 0
1.766984 -0.169660 0
2.075927 -0.237764 0
2.496293 -0.336434 0
3.111715 -0.452886 0
3.928601 -0.660520 0
5.274906 -0.700748 0
6.153745 -0.470475 0
6.660031 -0.293956 0
6.984232 -0.207406 0
7.247756 -0.177908 0
7.510877 -0.159574 0
7.734186 -0.128955 0
7.900382 -0.090985 0
8.007976 -0.053735 0
8.065763 -0.021314 0
8.079228 0.011637 0
8.044902 0.051007 0
7.945760 0.111257 0
7.740660 0.204847 0
7.368306 0.328841 0
6.795504 0.475522 0
5.939396 0.638404 0
4.801627 0.842378 0
3.369305 1.005986 0
1.720341 1.039266 0
0.000000 0.000058 0
0.000000 -0.513965 0
0.000000 0.000000 0
0.000000 -0.903608 0
0.000000 -0.000001 0
-2.156629 1.313653 0
-3.189257 0.564859 0
-3.538788 0.227769 0
-3.774520 0.110807 0
-3.886730 0.057448 0
-3.945211 0.029628 0
-3.976060 0.014087 0
-3.983535 0.001962 0
-3.969475 -0.010884 0
-3.932339 -0.027606 0
-3.862838 -0.053143 0
-3.739591 -0.101120 0
-3.512200 -0.212633 0
-3.015737 -0.499785 0
-1.895305 -1.283927 0
1.098037 -2.934241 0
6.031832 -2.967451 0
8.539647 -1.382487 0
9.644123 -0.564768 0
10.000489 -0.185850 0
10.078072 -0.050046 0
10.096100 -0.011517 0
10.100150 -0.001820 0
10.101915 0.001174 0
10.099728 0.001891 0
10.098980 0.000548 0
10.103361 0.000817 0
10.102048 0.002504 0
10.099236 0.002825 0
10.097220 0.002452 0
10.095870 0.001991 0
10.095463 0.001786 0
10.094916 0.002014 0
10.093687 0.002390 0
10.091755 0.002514 0
10.089807 0.002114 0
10.089256 0.001571 0
10.089591 0.001597 0
10.088906 0.001881 0
10.087628 0.000930 0
10.087762 -0.000076 0
1.000000 -0.004587 0
1.008216 -0.014425 0
1.024682 -0.025735 0
1.050274 -0.038968 0
1.086545 -0.054869 0
1.135738 -0.074397 0
1.200994 -0.099091 0
1.286539 -0.129144 0
1.398185 -0.171905 0
1.544642 -0.233971 0
1.750941 -0.332445 0
2.030588 -0.466764 0
2.436461 -0.662910 0
3.018442 -0.916683 0
3.864222 -1.384448 0
5.373203 -1.424097 0
6.023779 -0.886485 0
6.359138 -0.531517 0
6.557925 -0.376149 0
6.741035 -0.337057 0
6.978449 -0.311319 0
7.177821 -0.249287 0
7.319092 -0.175229 0
7.410213 -0.105847 0
7.461476 -0.045605 0
7.481630 0.013347 0
7.472472 0.085416 0
7.422675 0.194711 0
7.307146 0.369567 0
7.061012 0.604897 0
6.574806 0.914500 0
5.821460 1.276078 0
4.735517 1.644855 0
3.436745 1.972020 0
1.826575 2.156352 0
0.000000 -0.000116 0
0.000000 -1.101133 0
0.000000 0.000000 0
0.000000 -1.380228 0
0.000000 0.000013 0
-1.163712 2.041122 0
-1.727850 0.884580 0
-2.065484 0.374566 0
-2.298369 0.222681 0
-2.383334 0.109240 0
-2.444326 0.057169 0
-2.472864 0.024526 0
-2.479221 -0.004216 0
-2.458386 -0.032767 0
-2.405555 -0.068249 0
-2.323667 -0.123361 0
-2.183748 -0.224411 0
-1.952949 -0.463269 0
-1.458303 -1.034814 0
-0.011973 -2.632818 0
2.466017 -5.073370 0
5.767592 -4.762633 0
7.126712 -2.311869 0
7.697166 -0.934941 0
7.748491 -0.277730 0
7.683003 -0.061193 0
7.669216 -0.014132 0
7.665663 -0.003724 0
7.670565 0.000268 0
7.668240 0.001876 0
7.665332 -0.002328 0
7.678295 -0.001966 0
7.677853 0.002638 0
7.676341 0.003087 0
7.676885 0.002152 0
7.677529 0.001122 0
7.679862 0.000608 0
7.681875 0.001134 0
7.683026 0.002021 0
7.683133 0.002481 0
7.682320 0.001597 0
7.683665 0.000135 0
7.687166 0.000221 0
7.688783 0.001254 0
7.688839 0.000730 0
7.689049 -0.000169 0
1.000000 -0.007091 0
1.007376 -0.022045 0
1.022770 -0.038824 0
1.046798 -0.058239 0
1.080846 -0.081476 0
1.126954 -0.110016 0
1.188074 -0.145943 0
1.267701 -0.190838 0
1.375286 -0.251975 0
1.508030 -0.343745 0
1.695757 -0.480668 0
1.946182 -0.676499 0
2.298202 -0.968663 0
2.815068 -1.366655 0
3.632526 -2.167569 0
5.227637 -2.082866 0
5.419626 -1.101475 0
5.379437 -0.635811 0
5.334517 -0.451821 0
5.311256 -0.447045 0
5.518533 -0.439119 0
5.684228 -0.346968 0
5.793395 -0.239717 0
5.857939 -0.144862 0
5.895918 -0.067022 0
5.919584 0.004598 0
5.937033 0.088737 0
5.952984 0.217064 0
5.969396 0.436310 0
5.936745 0.797537 0
5.684534 1.268834 0
5.144173 1.815548 0
4.312389 2.368594 0
3.160834 2.867708 0
1.724663 3.238782 0
0.000000 0.000184 0
0.000000 -1.682846 0
0.000000 0.000000 0
0.000000 -1.648358 0
0.000000 0.000024 0
-0.669556 2.419476 0
-0.970752 1.141993 0
-1.319245 0.592901 0
-1.456692 0.314230 0
-1.538228 0.150860 0
-1.621908 0.086926 0
-1.658994 0.036420 0
-1.672502 -0.007304 0
-1.647762 -0.058031 0
-1.580040 -0.113826 0
-1.478884 -0.195099 0
-1.325094 -0.338381 0
-1.059145 -0.676918 0
-0.598760 -1.742010 0
0.799891 -3.795492 0
2.498406 -6.633163 0
5.125226 -5.950297 0
4.840229 -2.617415 0
4.709659 -0.962706 0
4.334917 -0.176787 0
3.843077 0.000689 0
3.790046 -0.000420 0
3.753863 -0.002684 0
3.789311 -0.000476 0
3.784005 0.005239 0
3.741268 -0.005888 0
3.810422 -0.007197 0
3.802746 0.003754 0
3.792277 0.003444 0
3.797212 0.001691 0
3.799005 0.000085 0
3.811024 -0.000997 0
3.821873 -0.000012 0
3.829691 0.001584 0
3.836224 0.002965 0
3.834943 0.001772 0
3.837734 -0.001532 0
3.852324 -0.001679 0
3.857836 0.000810 0
3.853523 0.000759 0
3.853639 -0.000348 0
1.000000 -0.009311 0
1.006310 -0.029002 0
1.020428 -0.050967 0
1.042415 -0.076139 0
1.073560 -0.106172 0
1.115659 -0.143025 0
1.171175 -0.189171 0
1.243413 -0.248962 0
1.339857 -0.325718 0
1.459131 -0.439075 0
1.619588 -0.612864 0
1.825429 -0.852330 0
2.093057 -1.219000 0
2.474346 -1.770653 0
3.103643 -2.928493 0
4.367628 -2.567843 0
3.650549 -0.983639 0
3.036831 -0.477048 0
2.657092 -0.332514 0
2.266613 -0.454829 0
3.091312 -0.550022 0
3.486597 -0.425200 0
3.671298 -0.286406 0
3.762912 -0.171463 0
3.812566 -0.085059 0
3.843663 -0.012967 0
3.871374 0.064039 0
3.910627 0.173997 0
3.989945 0.379958 0
4.109266 0.787207 0
4.223711 1.421745 0
4.048470 2.154250 0
3.546595 2.914191 0
2.649360 3.628164 0
1.490221 4.179284 0
0.000000 -0.000048 0
0.000000 -2.204849 0
0.000000 0.000000 0
0.000000 -1.808727 0
0.000000 0.000029 0
-0.401750 2.662402 0
-0.635231 1.300380 0
-0.834642 0.685567 0
-0.916913 0.362829 0
-1.044053 0.214978 0
-1.152142 0.134459 0
-1.196477 0.056905 0
-1.229710 -0.011406 0
-1.202600 -0.091944 0
-1.118120 -0.176332 0
-0.933928 -0.286527 0
-0.765630 -0.493044 0
-0.542651 -0.928123 0
-0.022206 -2.224598 0
0.890908 -4.615005 0
2.143467 -7.841585 0
3.850230 -6.261400 0
1.579065 -2.045906 0
0.353459 -0.611542 0
0.074835 0.276882 0
0.110335 0.287524 0
0.633810 0.042964 0
0.433665 -0.003255 0
0.751280 -0.019024 0
0.453173 0.032622 0
0.878373 -0.019236 0
0.207490 -0.041313 0
0.645246 0.014249 0
0.626807 0.006628 0
0.603160 -0.002154 0
0.644779 -0.007718 0
0.692953 -0.014029 0
0.743191 -0.010815 0
0.754620 -0.007165 0
0.788357 -0.000881 0
0.767432 0.000629 0
0.761661 -0.010990 0
0.832994 -0.012645 0
0.865153 0.000486 0
0.841741 0.003415 0
0.841891 -0.000322 0
1.000000 -0.011133 0
1.004671 -0.035123 0
1.017464 -0.061933 0
1.036867 -0.092246 0
1.064365 -0.128354 0
1.101461 -0.172492 0
1.149935 -0.227708 0
1.212633 -0.298797 0
1.292245 -0.390036 0
1.398099 -0.522775 0
1.526080 -0.715100 0
1.654472 -0.979521 0
1.842743 -1.383971 0
2.050854 -2.013433 0
2.307539 -3.379272 0
1.997043 -2.432888 0
-0.006399 -0.249767 0
-0.001742 0.000000 0
0.000678 0.041117 0
0.106716 -0.724946 0
1.565068 -1.219910 0
2.148173 -0.718160 0
2.400163 -0.416559 0
2.525408 -0.235274 0
2.589530 -0.118703 0
2.621490 -0.033040 0
2.636978 0.045879 0
2.651279 0.141178 0
2.675897 0.309180 0
2.769560 0.647925 0
2.920833 1.307742 0
2.992309 2.248901 0
2.720508 3.264024 0
2.120481 4.183786 0
1.205033 4.934372 0
0.000000 -0.000132 0
0.000000 -2.636904 0
0.000000 0.000000 0
0.000000 -1.905485 0
0.000000 0.000017 0
-0.247598 2.826022 0
-0.432836 1.419043 0
-0.592768 0.773177 0
-0.706850 0.448252 0
-0.872475 0.301406 0
-0.940246 0.184477 0
-1.037665 0.086062 0
-1.064577 -0.003386 0
-1.018778 -0.129450 0
-0.913435 -0.285777 0
-0.729955 -0.420693 0
-0.507246 -0.588799 0
-0.365545 -1.152711 0
0.137174 -2.659489 0
0.761453 -5.181523 0
1.482476 -8.527130 0
1.753436 -5.589081 0
0.000159 -0.379483 0
0.000103 0.000000 0
0.000062 -0.021188 0
-0.627486 -0.357055 0
-0.485666 -0.207352 0
-0.095403 -0.077865 0
-0.268599 -0.012962 0
-0.074040 -0.076102 0
-0.144891 0.151349 0
-0.175834 0.142003 0
-0.296603 -0.264610 0
-0.201370 0.030378 0
-0.302110 -0.009812 0
-0.249280 -0.057383 0
-0.326238 -0.063981 0
-0.224708 -0.039480 0
-0.197335 -0.027323 0
-0.168157 -0.005235 0
-0.155546 0.018857 0
-0.143041 -0.043493 0
-0.117101 -0.067915 0
-0.073965 -0.004789 0
-0.054962 0.015646 0
-0.054572 -0.000541 0
1.000000 -0.012303 0
1.001752 -0.040183 0
1.013829 -0.071574 0
1.030094 -0.106158 0
1.053396 -0.147514 0
1.084808 -0.197792 0
1.125328 -0.260324 0
1.176518 -0.340042 0
1.239991 -0.444418 0
1.321985 -0.588731 0
1.408003 -0.776945 0
1.497133 -1.054997 0
1.593724 -1.472686 0
1.630877 -2.068124 0
1.449822 -2.894057 0
0.159851 0.000089 0
-1.163017 1.683882 0
-0.692258 0.000000 0
-0.410551 1.217590 0
0.000000 0.000027 0
1.134421 -1.839715 0
1.549967 -0.959661 0
1.757519 -0.527837 0
1.873236 -0.292659 0
1.933183 -0.146553 0
1.960184 -0.043335 0
1.966102 0.044973 0
1.970288 0.149088 0
1.969146 0.304257 0
1.988806 0.630448 0
2.082559 1.279184 0
2.181767 2.282456 0
2.055099 3.472159 0
1.654017 4.598067 0
0.945223 5.536391 0
0.000000 -0.000048 0
0.000000 -2.976069 0
0.000000 0.000000 0
0.000000 -1.967216 0
0.000000 0.000001 0
-0.155838 2.939416 0
-0.299485 1.521289 0
-0.426605 0.860935 0
-0.554091 0.541841 0
-0.684516 0.364351 0
-0.782502 0.240180 0
-0.892736 0.136477 0
-0.897656 -0.023494 0
-0.858612 -0.188676 0
-0.756356 -0.361179 0
-0.596958 -0.546488 0
-0.365636 -0.726267 0
-0.184988 -1.340553 0
0.177382 -2.945877 0
0.536749 -5.475998 0
0.846188 -8.476456 0
0.242869 0.000078 0
0.119471 5.012288 0
1.093323 0.000000 0
1.074909 0.076002 0
0.000000 -0.001041 0
-0.012696 -0.306249 0
-0.288674 -0.142179 0
-0.538936 -0.032697 0
-0.138357 -0.046552 0
-0.554971 0.045911 0
0.099165 0.055782 0
-0.388608 0.030591 0
-0.652129 0.010152 0
-0.770177 0.028507 0
-0.829707 0.007723 0
-0.878042 -0.029756 0
-0.854385 -0.093313 0
-0.809277 -0.043359 0
-0.810034 -0.027627 0
-0.771330 -0.015445 0
-0.751129 -0.035596 0
-0.787033 -0.056855 0
-0.773293 -0.039284 0
-0.729903 -0.008997 0
-0.729491 -0.000823 0
1.000000 -0.012257 0
0.999285 -0.043978 0
1.009663 -0.080075 0
1.023225 -0.117571 0
1.042075 -0.163373 0
1.067153 -0.218531 0
1.098842 -0.286404 0
1.137646 -0.372183 0
1.184007 -0.483137 0
1.237379 -0.630305 0
1.292034 -0.827198 0
1.350238 -1.098385 0
1.361024 -1.469569 0
1.256465 -1.921337 0
0.887568 -2.437817 0
0.000000 0.000052 0
0.000000 1.357592 0
0.000000 0.000000 0
0.000000 1.475304 0
0.000000 0.000051 0
0.673234 -2.195050 0
1.033756 -1.116944 0
1.184761 -0.623452 0
1.288176 -0.347700 0
1.354132 -0.174352 0
1.380488 -0.054109 0
1.371114 0.039411 0
1.376774 0.139229 0
1.379704 0.297327 0
1.405865 0.575340 0
1.471056 1.184247 0
1.574413 2.266474 0
1.522555 3.601782 0
1.254089 4.894106 0
0.719081 5.992942 0
0.000000 0.000053 0
0.000000 -3.241660 0
0.000000 0.000000 0
0.000000 -2.005244 0
0.000000 -0.000007 0
-0.097458 3.017691 0
-0.203667 1.592333 0
-0.297016 0.936125 0
-0.376190 0.613314 0
-0.505462 0.447588 0
-0.621820 0.317738 0
-0.688544 0.159761 0
-0.722811 -0.025226 0
-0.742969 -0.219882 0
-0.648370 -0.453236 0
-0.474446 -0.670755 0
-0.274342 -0.852461 0
-0.089399 -1.500243 0
0.139946 -3.121402 0
0.353877 -5.609559 0
0.451062 -8.339047 0
0.000000 0.000087 0
0.000000 4.823562 0
0.000000 0.000000 0
0.000000 0.335584 0
0.000000 -0.000838 0
-0.328345 -0.031281 0
-0.873790 0.258928 0
-0.616300 -0.109166 0
-0.826863 -0.065840 0
-0.734216 -0.000666 0
-0.672106 0.035530 0
-0.643300 0.216217 0
-1.022707 0.274582 0
-1.129195 0.103838 0
-1.144130 0.011649 0
-1.041888 -0.048189 0
-1.068583 -0.083490 0
-1.086611 -0.055709 0
-1.092867 -0.029522 0
-1.090689 -0.018843 0
-1.095448 -0.033444 0
-1.104103 -0.053731 0
-1.113626 -0.041353 0
-1.118379 -0.012388 0
-1.118386 -0.001070 0
1.000000 -0.011848 0
0.999717 -0.046372 0
1.004868 -0.086898 0
1.015612 -0.126904 0
1.029819 -0.175631 0
1.048272 -0.234125 0
1.070843 -0.305441 0
1.097393 -0.394551 0
1.127053 -0.508249 0
1.158577 -0.657870 0
1.188593 -0.849177 0
1.194432 -1.099153 0
1.157945 -1.412674 0
0.998246 -1.765114 0
0.647381 -2.089921 0
0.000000 0.000061 0
0.000000 1.115812 0
0.000000 0.000000 0
0.000000 1.648488 0
0.000000 0.000054 0
0.440254 -2.501321 0
0.760373 -1.287040 0
0.828156 -0.690667 0
0.929959 -0.401057 0
1.092585 -0.205633 0
1.113908 -0.054205 0
1.114006 0.047349 0
1.003222 0.143589 0
0.973095 0.285638 0
0.997667 0.571981 0
1.052188 1.171313 0
1.141505 2.249496 0
1.127374 3.677165 0
0.938043 5.112289 0
0.528561 6.339008 0
0.000000 0.000091 0
0.000000 -3.436141 0
0.000000 0.000000 0
0.000000 -2.029596 0
0.000000 -0.000006 0
-0.060246 3.069762 0
-0.128428 1.649005 0
-0.185323 0.971349 0
-0.265126 0.675246 0
-0.385569 0.521553 0
-0.408977 0.357351 0
-0.500780 0.201110 0
-0.560854 0.011337 0
-0.580975 -0.236318 0
-0.496102 -0.533035 0
-0.360565 -0.785867 0
-0.180978 -0.972698 0
-0.048664 -1.605698 0
0.095190 -3.229574 0
0.230705 -5.675114 0
0.245961 -8.249975 0
0.000000 0.000083 0
0.000000 4.723614 0
0.000000 0.000000 0
0.000000 -0.132704 0
0.000000 0.000393 0
-0.777052 0.252976 0
-0.622345 0.042111 0
-0.484710 -0.062732 0
-0.916428 0.028913 0
-0.955389 -0.053134 0
-0.882940 -0.002405 0
-0.824447 0.254975 0
-0.793877 0.321124 0
-0.648786 0.106217 0
-0.743079 -0.048154 0
-0.605410 -0.078107 0
-0.488180 -0.064692 0
-0.451370 -0.027818 0
-0.465480 -0.025017 0
-0.440267 -0.013794 0
-0.417230 -0.027012 0
-0.473813 -0.045222 0
-0.446942 -0.030148 0
-0.477125 -0.005952 0
-0.477561 -0.000816 0
1.000000 -0.012079 0
1.000516 -0.047097 0
1.000581 -0.090250 0
1.008127 -0.133542 0
1.016961 -0.184278 0
1.028748 -0.244789 0
1.042753 -0.317843 0
1.058312 -0.408160 0
1.073879 -0.522297 0
1.088324 -0.669693 0
1.093069 -0.850147 0
1.069491 -1.078772 0
0.999668 -1.344013 0
0.816306 -1.594578 0
0.477791 -1.798942 0
0.000000 0.000019 0
0.000000 0.943237 0
0.000000 0.000000 0
0.000000 1.757065 0
0.000000 0.000048 0
0.279097 -2.681690 0
0.450993 -1.365203 0
0.521537 -0.731989 0
0.706967 -0.516936 0
0.921193 -0.292080 0
0.924839 -0.067819 0
0.883061 0.110249 0
0.836239 0.229410 0
0.744168 0.300882 0
0.678844 0.524720 0
0.747254 1.092189 0
0.833361 2.218354 0
0.839624 3.731997 0
0.689488 5.277345 0
0.393298 6.593288 0
0.000000 0.000071 0
0.000000 -3.579921 0
0.000000 0.000000 0
0.000000 -2.043791 0
0.000000 0.000002 0
-0.032245 3.099884 0
-0.068994 1.672382 0
-0.081469 1.023610 0
-0.171646 0.741471 0
-0.201265 0.539652 0
-0.251647 0.391472 0
-0.289687 0.256961 0
-0.342200 0.026098 0
-0.371927 -0.261324 0
-0.333299 -0.594299 0
-0.217370 -0.872435 0
-0.115656 -1.052078 0
-0.018652 -1.676992 0
0.079680 -3.300199 0
0.158162 -5.706054 0
0.147120 -8.191396 0
0.000000 0.000072 0
0.000000 4.666131 0
0.000000 0.000000 0
0.000000 -0.160574 0
0.000000 0.000316 0
-0.258735 0.367019 0
-0.412438 0.071828 0
-0.352086 0.079046 0
-0.425095 0.235394 0
-0.407357 -0.022099 0
-0.359501 -0.048274 0
-0.374544 0.159216 0
-0.387868 0.162158 0
-0.219627 0.071326 0
-0.356496 -0.016112 0
-0.269443 -0.211325 0
-0.110686 -0.182077 0
0.052013 -0.070237 0
0.048007 -0.036629 0
0.084956 -0.049724 0
-0.046085 -0.011976 0
-0.132717 -0.034716 0
0.063842 -0.039234 0
0.045231 0.007207 0
0.044942 -0.000513 0
1.000000 -0.012181 0
0.999724 -0.046748 0
0.999555 -0.091772 0
1.000969 -0.137389 0
1.005361 -0.188830 0
1.010951 -0.250635 0
1.017508 -0.324364 0
1.023758 -0.414474 0
1.028275 -0.527459 0
1.030776 -0.670154 0
1.008381 -0.837126 0
0.974672 -1.039379 0
0.865700 -1.250637 0
0.663014 -1.431115 0
0.374777 -1.567488 0
0.000000 -0.000004 0
0.000000 0.809962 0
0.000000 0.000000 0
0.000000 1.827108 0
0.000000 0.000050 0
0.178489 -2.789959 0
0.281528 -1.442202 0
0.387455 -0.854492 0
0.606201 -0.656839 0
0.731959 -0.345072 0
0.787837 -0.029801 0
0.637245 0.104052 0
0.659109 0.232479 0
0.604391 0.386370 0
0.573170 0.570005 0
0.519186 1.072421 0
0.598210 2.190378 0
0.621684 3.769243 0
0.515161 5.397936 0
0.297891 6.780279 0
0.000000 0.000024 0
0.000000 -3.687918 0
0.000000 0.000000 0
0.000000 -2.050213 0
0.000000 0.000012 0
-0.010053 3.113917 0
-0.023980 1.680508 0
-0.015992 1.037046 0
-0.015882 0.751914 0
-0.012575 0.572753 0
-0.034510 0.413941 0
-0.001965 0.259063 0
-0.063069 0.063970 0
-0.133858 -0.242015 0
-0.134765 -0.631952 0
-0.068176 -0.925159 0
-0.040429 -1.099878 0
0.020861 -1.730714 0
0.081827 -3.342736 0
0.124477 -5.718276 0
0.100837 -8.148752 0
0.000000 0.000055 0
0.000000 4.629428 0
0.000000 0.000000 0
0.000000 -0.298806 0
0.000000 -0.000120 0
-0.187248 0.516934 0
-0.265509 0.101855 0
-0.332687 -0.054632 0
0.137341 0.064286 0
0.181446 -0.095116 0
0.044759 -0.023406 0
-0.094055 0.273129 0
0.011895 0.221977 0
-0.084315 0.086138 0
-0.098713 -0.016273 0
-0.129295 -0.235426 0
-0.089332 -0.270424 0
0.001259 -0.129382 0
0.071493 -0.046102 0
-0.175772 0.046423 0
-0.264287 0.112299 0
-0.107049 -0.115576 0
-0.029431 -0.144036 0
-0.031914 0.006144 0
-0.031907 -0.000447 0
1.000000 -0.011905 0
0.999272 -0.046817 0
0.997931 -0.091050 0
0.996288 -0.137260 0
0.997299 -0.190669 0
0.997789 -0.252565 0
0.998593 -0.326042 0
0.996190 -0.415053 0
0.993469 -0.526791 0
0.975653 -0.656963 0
0.940077 -0.814243 0
0.868756 -0.987458 0
0.750607 -1.144554 0
0.557202 -1.280390 0
0.306371 -1.374615 0
0.000000 -0.000014 0
0.000000 0.703347 0
0.000000 0.000000 0
0.000000 1.871322 0
0.000000 0.000071 0
0.112822 -2.861870 0
0.185954 -1.498942 0
0.285444 -0.939781 0
0.406584 -0.737420 0
0.530092 -0.408328 0
0.589262 -0.007204 0
0.415373 0.192634 0
0.336906 0.250436 0
0.274873 0.355881 0
0.325980 0.579250 0
0.337644 1.076163 0
0.423315 2.152754 0
0.462637 3.785147 0
0.396005 5.484571 0
0.230231 6.922990 0
0.000000 -0.000020 0
0.000000 -3.770662 0
0.000000 0.000000 0
0.000000 -2.050208 0
0.000000 0.000019 0
0.009486 3.115230 0
0.012817 1.676182 0
0.028825 1.018427 0
0.086778 0.739283 0
0.143964 0.551573 0
0.190823 0.384681 0
0.206129 0.275238 0
0.164586 0.110509 0
0.115363 -0.215439 0
0.108913 -0.636336 0
0.082569 -0.932811 0
0.055034 -1.109063 0
0.064865 -1.755236 0
0.100597 -3.366513 0
0.119319 -5.718221 0
0.084679 -8.111732 0
0.000000 0.000033 0
0.000000 4.601558 0
0.000000 0.000000 0
0.000000 -0.279756 0
0.000000 0.000972 0
0.193189 0.536942 0
0.179060 0.164907 0
-0.099321 -0.178778 0
0.178376 -0.093652 0
0.237405 0.037152 0