# vtk DataFile Version 2.0
generated by CFD-lab course output (written by Tobias Neckel) 
ASCII

DATASET STRUCTURED_GRID
DIMENSIONS  81 26 1 
POINTS 2106 float

0.000000 0.000000 0
0.125000 0.000000 0
0.250000 0.000000 0
0.375000 0.000000 0
0.500000 0.000000 0
0.625000 0.000000 0
0.750000 0.000000 0
0.875000 0.000000 0
1.000000 0.000000 0
1.125000 0.000000 0
1.250000 0.000000 0
1.375000 0.000000 0
1.500000 0.000000 0
1.625000 0.000000 0
1.750000 0.000000 0
1.875000 0.000000 0
2.000000 0.000000 0
2.125000 0.000000 0
2.250000 0.000000 0
2.375000 0.000000 0
2.500000 0.000000 0
2.625000 0.000000 0
2.750000 0.000000 0
2.875000 0.000000 0
3.000000 0.000000 0
3.125000 0.000000 0
3.250000 0.000000 0
3.375000 0.000000 0
3.500000 0.000000 0
3.625000 0.000000 0
3.750000 0.000000 0
3.875000 0.000000 0
4.000000 0.000000 0
4.125000 0.000000 0
4.250000 0.000000 0
4.375000 0.000000 0
4.500000 0.000000 0
4.625000 0.000000 0
4.750000 0.000000 0
4.875000 0.000000 0
5.000000 0.000000 0
5.125000 0.000000 0
5.250000 0.000000 0
5.375000 0.000000 0
5.500000 0.000000 0
5.625000 0.000000 0
5.750000 0.000000 0
5.875000 0.000000 0
6.000000 0.000000 0
6.125000 0.000000 0
6.250000 0.000000 0
6.375000 0.000000 0
6.500000 0.000000 0
6.625000 0.000000 0
6.750000 0.000000 0
6.875000 0.000000 0
7.000000 0.000000 0
7.125000 0.000000 0
7.250000 0.000000 0
7.375000 0.000000 0
7.500000 0.000000 0
7.625000 0.000000 0
7.750000 0.000000 0
7.875000 0.000000 0
8.000000 0.000000 0
8.125000 0.000000 0
8.250000 0.000000 0
8.375000 0.000000 0
8.500000 0.000000 0
8.625000 0.000000 0
8.750000 0.000000 0
8.875000 0.000000 0
9.000000 0.000000 0
9.125000 0.000000 0
9.250000 0.000000 0
9.375000 0.000000 0
9.500000 0.000000 0
9.625000 0.000000 0
9.750000 0.000000 0
9.875000 0.000000 0
10.000000 0.000000 0
0.000000 0.080000 0
0.125000 0.080000 0
0.250000 0.080000 0
0.375000 0.080000 0
0.500000 0.080000 0
0.625000 0.080000 0
0.750000 0.080000 0
0.875000 0.080000 0
1.000000 0.080000 0
1.125000 0.080000 0
1.250000 0.080000 0
1.375000 0.080000 0
1.500000 0.080000 0
1.625000 0.080000 0
1.750000 0.080000 0
1.875000 0.080000 0
2.000000 0.080000 0
2.125000 0.080000 0
2.250000 0.080000 0
2.375000 0.080000 0
2.500000 0.080000 0
2.625000 0.080000 0
2.750000 0.080000 0
2.875000 0.080000 0
3.000000 0.080000 0
3.125000 0.080000 0
3.250000 0.080000 0
3.375000 0.080000 0
3.500000 0.080000 0
3.625000 0.080000 0
3.750000 0.080000 0
3.875000 0.080000 0
4.000000 0.080000 0
4.125000 0.080000 0
4.250000 0.080000 0
4.375000 0.080000 0
4.500000 0.080000 0
4.625000 0.080000 0
4.750000 0.080000 0
4.875000 0.080000 0
5.000000 0.080000 0
5.125000 0.080000 0
5.250000 0.080000 0
5.375000 0.080000 0
5.500000 0.080000 0
5.625000 0.080000 0
5.750000 0.080000 0
5.875000 0.080000 0
6.000000 0.080000 0
6.125000 0.080000 0
6.250000 0.080000 0
6.375000 0.080000 0
6.500000 0.080000 0
6.625000 0.080000 0
6.750000 0.080000 0
6.875000 0.080000 0
7.000000 0.080000 0
7.125000 0.080000 0
7.250000 0.080000 0
7.375000 0.080000 0
7.500000 0.080000 0
7.625000 0.080000 0
7.750000 0.080000 0
7.875000 0.080000 0
8.000000 0.080000 0
8.125000 0.080000 0
8.250000 0.080000 0
8.375000 0.080000 0
8.500000 0.080000 0
8.625000 0.080000 0
8.750000 0.080000 0
8.875000 0.080000 0
9.000000 0.080000 0
9.125000 0.080000 0
9.250000 0.080000 0
9.375000 0.080000 0
9.500000 0.080000 0
9.625000 0.080000 0
9.750000 0.080000 0
9.875000 0.080000 0
10.000000 0.080000 0
0.000000 0.160000 0
0.125000 0.160000 0
0.250000 0.160000 0
0.375000 0.160000 0
0.500000 0.160000 0
0.625000 0.160000 0
0.750000 0.160000 0
0.875000 0.160000 0
1.000000 0.160000 0
1.125000 0.160000 0
1.250000 0.160000 0
1.375000 0.160000 0
1.500000 0.160000 0
1.625000 0.160000 0
1.750000 0.160000 0
1.875000 0.160000 0
2.000000 0.160000 0
2.125000 0.160000 0
2.250000 0.160000 0
2.375000 0.160000 0
2.500000 0.160000 0
2.625000 0.160000 0
2.750000 0.160000 0
2.875000 0.160000 0
3.000000 0.160000 0
3.125000 0.160000 0
3.250000 0.160000 0
3.375000 0.160000 0
3.500000 0.160000 0
3.625000 0.160000 0
3.750000 0.160000 0
3.875000 0.160000 0
4.000000 0.160000 0
4.125000 0.160000 0
4.250000 0.160000 0
4.375000 0.160000 0
4.500000 0.160000 0
4.625000 0.160000 0
4.750000 0.160000 0
4.875000 0.160000 0
5.000000 0.160000 0
5.125000 0.160000 0
5.250000 0.160000 0
5.375000 0.160000 0
5.500000 0.160000 0
5.625000 0.160000 0
5.750000 0.160000 0
5.875000 0.160000 0
6.000000 0.160000 0
6.125000 0.160000 0
6.250000 0.160000 0
6.375000 0.160000 0
6.500000 0.160000 0
6.625000 0.160000 0
6.750000 0.160000 0
6.875000 0.160000 0
7.000000 0.160000 0
7.125000 0.160000 0
7.250000 0.160000 0
7.375000 0.160000 0
7.500000 0.160000 0
7.625000 0.160000 0
7.750000 0.160000 0
7.875000 0.160000 0
8.000000 0.160000 0
8.125000 0.160000 0
8.250000 0.160000 0
8.375000 0.160000 0
8.500000 0.160000 0
8.625000 0.160000 0
8.750000 0.160000 0
8.875000 0.160000 0
9.000000 0.160000 0
9.125000 0.160000 0
9.250000 0.160000 0
9.375000 0.160000 0
9.500000 0.160000 0
9.625000 0.160000 0
9.750000 0.160000 0
9.875000 0.160000 0
10.000000 0.160000 0
0.000000 0.240000 0
0.125000 0.240000 0
0.250000 0.240000 0
0.375000 0.240000 0
0.500000 0.240000 0
0.625000 0.240000 0
0.750000 0.240000 0
0.875000 0.240000 0
1.000000 0.240000 0
1.125000 0.240000 0
1.250000 0.240000 0
1.375000 0.240000 0
1.500000 0.240000 0
1.625000 0.240000 0
1.750000 0.240000 0
1.875000 0.240000 0
2.000000 0.240000 0
2.125000 0.240000 0
2.250000 0.240000 0
2.375000 0.240000 0
2.500000 0.240000 0
2.625000 0.240000 0
2.750000 0.240000 0
2.875000 0.240000 0
3.000000 0.240000 0
3.125000 0.240000 0
3.250000 0.240000 0
3.375000 0.240000 0
3.500000 0.240000 0
3.625000 0.240000 0
3.750000 0.240000 0
3.875000 0.240000 0
4.000000 0.240000 0
4.125000 0.240000 0
4.250000 0.240000 0
4.375000 0.240000 0
4.500000 0.240000 0
4.625000 0.240000 0
4.750000 0.240000 0
4.875000 0.240000 0
5.000000 0.240000 0
5.125000 0.240000 0
5.250000 0.240000 0
5.375000 0.240000 0
5.500000 0.240000 0
5.625000 0.240000 0
5.750000 0.240000 0
5.875000 0.240000 0
6.000000 0.240000 0
6.125000 0.240000 0
6.250000 0.240000 0
6.375000 0.240000 0
6.500000 0.240000 0
6.625000 0.240000 0
6.750000 0.240000 0
6.875000 0.240000 0
7.000000 0.240000 0
7.125000 0.240000 0
7.250000 0.240000 0
7.375000 0.240000 0
7.500000 0.240000 0
7.625000 0.240000 0
7.750000 0.240000 0
7.875000 0.240000 0
8.000000 0.240000 0
8.125000 0.240000 0
8.250000 0.240000 0
8.375000 0.240000 0
8.500000 0.240000 0
8.625000 0.240000 0
8.750000 0.240000 0
8.875000 0.240000 0
9.000000 0.240000 0
9.125000 0.240000 0
9.250000 0.240000 0
9.375000 0.240000 0
9.500000 0.240000 0
9.625000 0.240000 0
9.750000 0.240000 0
9.875000 0.240000 0
10.000000 0.240000 0
0.000000 0.320000 0
0.125000 0.320000 0
0.250000 0.320000 0
0.375000 0.320000 0
0.500000 0.320000 0
0.625000 0.320000 0
0.750000 0.320000 0
0.875000 0.320000 0
1.000000 0.320000 0
1.125000 0.320000 0
1.250000 0.320000 0
1.375000 0.320000 0
1.500000 0.320000 0
1.625000 0.320000 0
1.750000 0.320000 0
1.875000 0.320000 0
2.000000 0.320000 0
2.125000 0.320000 0
2.250000 0.320000 0
2.375000 0.320000 0
2.500000 0.320000 0
2.625000 0.320000 0
2.750000 0.320000 0
2.875000 0.320000 0
3.000000 0.320000 0
3.125000 0.320000 0
3.250000 0.320000 0
3.375000 0.320000 0
3.500000 0.320000 0
3.625000 0.320000 0
3.750000 0.320000 0
3.875000 0.320000 0
4.000000 0.320000 0
4.125000 0.320000 0
4.250000 0.320000 0
4.375000 0.320000 0
4.500000 0.320000 0
4.625000 0.320000 0
4.750000 0.320000 0
4.875000 0.320000 0
5.000000 0.320000 0
5.125000 0.320000 0
5.250000 0.320000 0
5.375000 0.320000 0
5.500000 0.320000 0
5.625000 0.320000 0
5.750000 0.320000 0
5.875000 0.320000 0
6.000000 0.320000 0
6.125000 0.320000 0
6.250000 0.320000 0
6.375000 0.320000 0
6.500000 0.320000 0
6.625000 0.320000 0
6.750000 0.320000 0
6.875000 0.320000 0
7.000000 0.320000 0
7.125000 0.320000 0
7.250000 0.320000 0
7.375000 0.320000 0
7.500000 0.320000 0
7.625000 0.320000 0
7.750000 0.320000 0
7.875000 0.320000 0
8.000000 0.320000 0
8.125000 0.320000 0
8.250000 0.320000 0
8.375000 0.320000 0
8.500000 0.320000 0
8.625000 0.320000 0
8.750000 0.320000 0
8.875000 0.320000 0
9.000000 0.320000 0
9.125000 0.320000 0
9.250000 0.320000 0
9.375000 0.320000 0
9.500000 0.320000 0
9.625000 0.320000 0
9.750000 0.320000 0
9.875000 0.320000 0
10.000000 0.320000 0
0.000000 0.400000 0
0.125000 0.400000 0
0.250000 0.400000 0
0.375000 0.400000 0
0.500000 0.400000 0
0.625000 0.400000 0
0.750000 0.400000 0
0.875000 0.400000 0
1.000000 0.400000 0
1.125000 0.400000 0
1.250000 0.400000 0
1.375000 0.400000 0
1.500000 0.400000 0
1.625000 0.400000 0
1.750000 0.400000 0
1.875000 0.400000 0
2.000000 0.400000 0
2.125000 0.400000 0
2.250000 0.400000 0
2.375000 0.400000 0
2.500000 0.400000 0
2.625000 0.400000 0
2.750000 0.400000 0
2.875000 0.400000 0
3.000000 0.400000 0
3.125000 0.400000 0
3.250000 0.400000 0
3.375000 0.400000 0
3.500000 0.400000 0
3.625000 0.400000 0
3.750000 0.400000 0
3.875000 0.400000 0
4.000000 0.400000 0
4.125000 0.400000 0
4.250000 0.400000 0
4.375000 0.400000 0
4.500000 0.400000 0
4.625000 0.400000 0
4.750000 0.400000 0
4.875000 0.400000 0
5.000000 0.400000 0
5.125000 0.400000 0
5.250000 0.400000 0
5.375000 0.400000 0
5.500000 0.400000 0
5.625000 0.400000 0
5.750000 0.400000 0
5.875000 0.400000 0
6.000000 0.400000 0
6.125000 0.400000 0
6.250000 0.400000 0
6.375000 0.400000 0
6.500000 0.400000 0
6.625000 0.400000 0
6.750000 0.400000 0
6.875000 0.400000 0
7.000000 0.400000 0
7.125000 0.400000 0
7.250000 0.400000 0
7.375000 0.400000 0
7.500000 0.400000 0
7.625000 0.400000 0
7.750000 0.400000 0
7.875000 0.400000 0
8.000000 0.400000 0
8.125000 0.400000 0
8.250000 0.400000 0
8.375000 0.400000 0
8.500000 0.400000 0
8.625000 0.400000 0
8.750000 0.400000 0
8.875000 0.400000 0
9.000000 0.400000 0
9.125000 0.400000 0
9.250000 0.400000 0
9.375000 0.400000 0
9.500000 0.400000 0
9.625000 0.400000 0
9.750000 0.400000 0
9.875000 0.400000 0
10.000000 0.400000 0
0.000000 0.480000 0
0.125000 0.480000 0
0.250000 0.480000 0
0.375000 0.480000 0
0.500000 0.480000 0
[...]
POINT_DATA 2106 

VECTORS velocity float
0.500000 0.000000 0
0.000001 0.000000 0
0.000002 0.000000 0
0.000002 0.000000 0
0.000003 0.000000 0
0.000003 0.000000 0
0.000005 0.000000 0
0.000006 0.000000 0
0.000007 0.000000 0
0.000008 0.000000 0
0.000009 0.000000 0
0.000008 0.000000 0
0.000003 0.000000 0
-0.000010 0.000000 0
-0.000047 0.000000 0
-0.000090 0.000000 0
0.000277 0.000000 0
0.000490 0.000000 0
0.000092 0.000000 0
-0.000163 0.000000 0
-0.000058 0.000000 0
0.000081 0.000000 0
0.000105 0.000000 0
0.000075 0.000000 0
0.000062 0.000000 0
0.000070 0.000000 0
0.000077 0.000000 0
0.000074 0.000000 0
0.000066 0.000000 0
0.000063 0.000000 0
0.000085 0.000000 0
0.000209 0.000000 0
0.000644 0.000000 0
0.000014 0.000000 0
0.000134 0.000000 0
0.000000 0.000000 0
0.000000 0.000000 0
0.000000 0.000000 0
0.000000 0.000000 0
0.000000 0.000000 0
-0.000064 0.000000 0
-0.000046 0.000000 0
0.000047 0.000000 0
0.000058 0.000000 0
0.000039 0.000000 0
0.000009 0.000000 0
-0.000024 0.000000 0
-0.000045 0.000000 0
-0.000039 0.000000 0
-0.000012 0.000000 0
0.000035 0.000000 0
0.000163 0.000000 0
0.000457 0.000000 0
0.000646 0.000000 0
-0.000366 0.000000 0
0.001238 0.000000 0
-0.000411 0.000000 0
-0.000662 0.000000 0
-0.000203 0.000000 0
0.000075 0.000000 0
0.000062 0.000000 0
0.000035 0.000000 0
0.000069 0.000000 0
0.000103 0.000000 0
0.000098 0.000000 0
0.000090 0.000000 0
0.000100 0.000000 0
0.000157 0.000000 0
0.000235 0.000000 0
0.000300 0.000000 0
0.000336 0.000000 0
0.000342 0.000000 0
0.000320 0.000000 0
0.000269 0.000000 0
0.000204 0.000000 0
0.000135 0.000000 0
0.000069 0.000000 0
0.000018 0.000000 0
-0.000016 0.000000 0
-0.000033 0.000000 0
-0.000041 0.000000 0
1.000000 -0.001826 0
1.007166 -0.006239 0
1.022533 -0.011908 0
1.047400 -0.018662 0
1.083499 -0.026799 0
1.133227 -0.036782 0
1.199813 -0.049431 0
1.288086 -0.064624 0
1.401591 -0.086760 0
1.556629 -0.117923 0
1.767019 -0.169554 0
2.075772 -0.237581 0
2.495802 -0.336134 0
3.110595 -0.452510 0
3.926405 -0.661043 0
5.273657 -0.703511 0
6.164914 -0.470329 0
6.661308 -0.290269 0
6.978203 -0.206611 0
7.244565 -0.179184 0
7.510646 -0.159726 0
7.732867 -0.127718 0
7.896371 -0.089557 0
8.001815 -0.052782 0
8.058542 -0.020900 0
8.071824 0.011579 0
8.037965 0.050562 0
7.939783 0.110565 0
7.735862 0.204129 0
7.364536 0.328291 0
6.792355 0.475150 0
5.936596 0.637653 0
4.797968 0.840425 0
3.368398 1.004584 0
1.721647 1.040331 0
0.000000 0.000086 0
0.000000 -0.515048 0
0.000000 0.000000 0
0.000000 -0.907782 0
0.000000 0.000040 0
-2.162196 1.318970 0
-3.195530 0.566266 0
-3.554044 0.228248 0
-3.793737 0.109769 0
-3.900524 0.054626 0
-3.953047 0.027211 0
-3.981524 0.013466 0
-3.991096 0.002951 0
-3.981085 -0.009381 0
-3.946497 -0.026502 0
-3.878624 -0.053729 0
-3.750717 -0.104742 0
-3.514150 -0.218889 0
-3.008208 -0.503040 0
-1.895337 -1.283361 0
1.099759 -2.929396 0
6.030511 -2.962303 0
8.535398 -1.381774 0
9.636693 -0.564825 0
9.989680 -0.185225 0
10.065434 -0.050431 0
10.088177 -0.013822 0
10.097824 -0.001029 0
10.091182 0.003024 0
10.087150 -0.000973 0
10.098995 -0.002915 0
10.104174 0.000390 0
10.102571 0.003333 0
10.098153 0.004960 0
10.091859 0.005623 0
10.085130 0.005297 0
10.079745 0.004164 0
10.077013 0.003040 0
10.075527 0.002753 0
10.073402 0.002944 0
10.070698 0.002870 0
10.068530 0.002486 0
10.067133 0.002241 0
10.065586 0.002056 0
10.064120 0.000927 0
10.064099 -0.000049 0
1.000000 -0.004584 0
1.008228 -0.014417 0
1.024672 -0.025747 0
1.050304 -0.039015 0
1.086645 -0.054926 0
1.135896 -0.074438 0
1.201186 -0.099107 0
1.286742 -0.129135 0
1.398386 -0.171865 0
1.544823 -0.233872 0
1.751037 -0.332249 0
2.030531 -0.466419 0
2.436119 -0.662284 0
3.017392 -0.915583 0
3.861417 -1.384357 0
5.363494 -1.432644 0
6.044557 -0.888095 0
6.370417 -0.520504 0
6.552457 -0.373284 0
6.736045 -0.340762 0
6.977794 -0.312513 0
7.177178 -0.246864 0
7.316069 -0.172127 0
7.404819 -0.103790 0
7.454868 -0.044806 0
7.474896 0.013170 0
7.466301 0.084506 0
7.417529 0.193346 0
7.303186 0.368158 0
7.058058 0.603844 0
6.572460 0.913881 0
5.819366 1.276407 0
4.732548 1.643646 0
3.433272 1.968845 0
1.824179 2.155774 0
0.000000 -0.000128 0
0.000000 -1.101982 0
0.000000 0.000000 0
0.000000 -1.383719 0
0.000000 0.000083 0
-1.165049 2.045134 0
-1.737742 0.890779 0
-2.106578 0.382849 0
-2.331003 0.221743 0
-2.401843 0.101954 0
-2.451959 0.051836 0
-2.478172 0.024348 0
-2.488706 -0.000284 0
-2.475608 -0.028547 0
-2.432452 -0.065579 0
-2.346638 -0.125303 0
-2.196407 -0.233267 0
-1.948647 -0.475210 0
-1.463256 -1.036045 0
-0.007974 -2.629103 0
2.462775 -5.072546 0
5.769834 -4.758813 0
7.127176 -2.307961 0
7.693564 -0.930744 0
7.737463 -0.274398 0
7.668139 -0.063042 0
7.658713 -0.020734 0
7.672426 -0.001927 0
7.659912 0.006827 0
7.645884 -0.005005 0
7.670905 -0.010899 0
7.679572 -0.002293 0
7.679508 0.003849 0
7.678904 0.006852 0
7.676459 0.008331 0
7.672933 0.007749 0
7.670162 0.005191 0
7.670834 0.002695 0
7.672935 0.002307 0
7.673243 0.003087 0
7.671932 0.003114 0
7.671130 0.002278 0
7.671732 0.001879 0
7.671656 0.001924 0
7.670505 0.000948 0
7.670249 0.000017 0
1.000000 -0.007091 0
1.007401 -0.022027 0
1.022720 -0.038836 0
1.046803 -0.058324 0
1.080955 -0.081577 0
1.127138 -0.110087 0
1.188292 -0.145972 0
1.267929 -0.190831 0
1.375516 -0.251931 0
1.508268 -0.343619 0
1.695950 -0.480406 0
1.946270 -0.676033 0
2.298176 -0.967725 0
2.814438 -1.364700 0
3.630169 -2.162547 0
5.211857 -2.100720 0
5.363449 -1.114760 0
5.395227 -0.615325 0
5.347998 -0.440612 0
5.313548 -0.451399 0
5.517763 -0.442051 0
5.682736 -0.344214 0
5.790950 -0.235247 0
5.853337 -0.141613 0
5.889831 -0.065750 0
5.913385 0.004262 0
5.931543 0.087277 0
5.948668 0.214958 0
5.966553 0.434190 0
5.935313 0.795955 0
5.683799 1.267913 0
5.143770 1.815197 0
4.314026 2.367525 0
3.159250 2.865940 0
1.720903 3.237625 0
0.000000 0.000357 0
0.000000 -1.682251 0
0.000000 0.000000 0
0.000000 -1.653398 0
0.000000 0.000054 0
-0.675150 2.431122 0
-0.999206 1.168843 0
-1.382639 0.607934 0
-1.470056 0.298737 0
-1.524725 0.132037 0
-1.598382 0.076061 0
-1.638741 0.036982 0
-1.666623 0.001309 0
-1.661504 -0.045385 0
-1.616727 -0.109044 0
-1.531081 -0.204800 0
-1.364130 -0.359457 0
-1.062365 -0.688107 0
-0.615490 -1.745072 0
0.801922 -3.796022 0
2.497468 -6.627195 0
5.125561 -5.947521 0
4.841582 -2.612963 0
4.710171 -0.955411 0
4.336238 -0.168955 0
3.825439 -0.000032 0
3.749746 -0.016567 0
3.833886 -0.001798 0
3.807887 0.020009 0
3.675861 -0.008010 0
3.806452 -0.024476 0
3.826824 -0.005117 0
3.817086 0.003760 0
3.817097 0.006911 0
3.811525 0.009443 0
3.803629 0.009326 0
3.795466 0.005506 0
3.799952 0.001264 0
3.812087 0.001210 0
3.818449 0.003584 0
3.817378 0.004221 0
3.816949 0.002612 0
3.825274 0.001903 0
3.831087 0.002840 0
3.831341 0.001825 0
3.831180 0.000267 0
1.000000 -0.009319 0
1.006374 -0.028956 0
1.020275 -0.050963 0
1.042379 -0.076285 0
1.073698 -0.106339 0
1.115896 -0.143133 0
1.171445 -0.189212 0
1.243687 -0.248958 0
1.340136 -0.325681 0
1.459443 -0.438949 0
1.619915 -0.612569 0
1.825699 -0.851842 0
2.093553 -1.217912 0
2.474656 -1.768058 0
3.104319 -2.918705 0
4.376437 -2.541943 0
3.628641 -1.005451 0
3.027857 -0.510616 0
2.667195 -0.321009 0
2.274865 -0.449412 0
3.093699 -0.548793 0
3.483207 -0.421704 0
3.665599 -0.281311 0
3.752312 -0.167073 0
3.799354 -0.083237 0
3.831223 -0.013526 0
3.860947 0.061925 0
3.902559 0.170939 0
3.984909 0.376705 0
4.106588 0.784807 0
4.222538 1.420468 0
4.048273 2.153062 0
3.548186 2.913739 0
2.647793 3.628443 0
1.487620 4.177694 0
0.000000 0.000162 0
0.000000 -2.203070 0
0.000000 0.000000 0
0.000000 -1.815862 0
0.000000 0.000035 0
-0.405000 2.684624 0
-0.650565 1.343571 0
-0.846142 0.684191 0
-0.847054 0.312676 0
-0.949433 0.184081 0
-1.038315 0.124805 0
-1.127064 0.068021 0
-1.174104 0.014283 0
-1.166426 -0.060482 0
-1.112039 -0.149051 0
-0.997987 -0.286966 0
-0.831678 -0.533247 0
-0.566341 -0.954341 0
-0.034058 -2.229190 0
0.880274 -4.621397 0
2.142383 -7.839677 0
3.850618 -6.259048 0
1.581833 -2.042112 0
0.360629 -0.607326 0
0.089002 0.291828 0
0.129377 0.312312 0
0.645418 -0.026141 0
0.265536 -0.039139 0
0.630756 0.107962 0
0.125537 -0.004088 0
0.865161 -0.107517 0
0.683279 -0.009100 0
0.690000 0.010073 0
0.763770 0.010409 0
0.689473 0.016949 0
0.616474 0.018025 0
0.617006 0.007543 0
0.679129 -0.007943 0
0.761377 -0.009533 0
0.807937 -0.000301 0
0.812699 0.004073 0
0.793826 -0.002777 0
0.842005 -0.007170 0
0.876231 -0.001961 0
0.861990 0.000887 0
0.862140 0.000210 0
1.000000 -0.011169 0
1.004842 -0.035001 0
1.017047 -0.061879 0
1.036763 -0.092514 0
1.064574 -0.128627 0
1.101796 -0.172644 0
1.150289 -0.227757 0
1.212976 -0.298793 0
1.292595 -0.390014 0
1.398504 -0.522678 0
1.526579 -0.714809 0
1.654975 -0.979160 0
1.843871 -1.383056 0
2.051890 -2.011590 0
2.310666 -3.379686 0
2.014660 -2.436285 0
0.013061 -0.251668 0
0.004926 0.000000 0
-0.000407 0.041303 0
0.109695 -0.724362 0
1.570037 -1.215390 0
2.142001 -0.710230 0
2.390959 -0.407474 0
2.506421 -0.227217 0
2.566747 -0.116253 0
2.601714 -0.035157 0
2.621639 0.041621 0
2.639944 0.135622 0
2.670651 0.303611 0
2.768863 0.643872 0
2.920580 1.305234 0
2.991889 2.246782 0
2.720132 3.263832 0
2.119031 4.184702 0
1.204410 4.932212 0
0.000000 -0.000064 0
0.000000 -2.634749 0
0.000000 0.000000 0
0.000000 -1.912584 0
0.000000 0.000067 0
-0.244226 2.847482 0
-0.414785 1.451173 0
-0.500391 0.733685 0
-0.552238 0.364841 0
-0.716375 0.254443 0
-0.806974 0.189744 0
-0.911250 0.123886 0
-0.941866 0.026499 0
-0.914268 -0.085107 0
-0.843941 -0.216846 0
-0.714316 -0.384232 0
-0.543512 -0.635712 0
-0.393276 -1.198585 0
0.130253 -2.670907 0
0.753502 -5.188945 0
1.479475 -8.528217 0
1.753479 -5.588771 0
0.000164 -0.379371 0
0.000059 0.000000 0
-0.000010 -0.020955 0
-0.598629 -0.356140 0
-0.480776 -0.103710 0
-0.522087 0.007585 0
-0.564976 0.109607 0
-0.396410 -0.158030 0
-0.271050 -0.381433 0
0.164021 0.106985 0
-0.165446 -0.047756 0
0.010095 0.007246 0
-0.062318 0.103711 0
-0.097149 0.055703 0
-0.253915 -0.034595 0
-0.183577 -0.091135 0
-0.066081 -0.081229 0
-0.045709 -0.029263 0
-0.019533 0.013251 0
0.004742 -0.016145 0
0.009171 -0.050838 0
0.032672 -0.009952 0
0.044904 0.010842 0
0.045271 0.000067 0
1.000000 -0.012417 0
1.002242 -0.039864 0
1.012713 -0.071392 0
1.029856 -0.106701 0
1.053684 -0.147960 0
1.085224 -0.197990 0
1.125737 -0.260366 0
1.176911 -0.340033 0
1.240410 -0.444418 0
1.322507 -0.588698 0
1.408680 -0.776710 0
1.497826 -1.054908 0
1.595408 -1.471936 0
1.631893 -2.066807 0
1.452468 -2.894877 0
0.161068 -0.000056 0
-1.190916 1.685020 0
-0.670881 0.000000 0
-0.406548 1.218614 0
0.000000 -0.000076 0
1.138715 -1.832551 0
1.534112 -0.947094 0
1.747572 -0.514540 0
1.843499 -0.279578 0
1.899166 -0.144225 0
1.936534 -0.048657 0
1.952085 0.037458 0
1.959978 0.139571 0
1.962021 0.294196 0
1.993709 0.624852 0
2.086873 1.277732 0
2.182864 2.281348 0
2.054038 3.472367 0
1.653443 4.598506 0
0.945913 5.533874 0
0.000000 -0.000115 0
0.000000 -2.974169 0
0.000000 0.000000 0
0.000000 -1.972132 0
0.000000 0.000067 0
-0.148230 2.950084 0
-0.265996 1.507516 0
-0.310932 0.772160 0
-0.424064 0.450904 0
-0.563848 0.347111 0
-0.674324 0.249524 0
-0.735755 0.154350 0
-0.748401 0.016213 0
-0.734835 -0.123155 0
-0.669875 -0.277021 0
-0.556969 -0.479242 0
-0.330168 -0.738713 0
-0.204945 -1.385552 0
0.170130 -2.963129 0
0.530750 -5.484900 0
0.843040 -8.479664 0
0.242797 -0.000088 0
0.117628 5.012939 0
1.087411 0.000000 0
1.066401 0.051204 0
0.000000 0.001080 0
-0.134195 -0.083713 0
-0.340798 0.014747 0
-0.663391 0.027527 0
-0.201349 -0.192202 0
-0.673638 -0.466195 0
-0.510526 -0.076688 0
-0.250767 0.108584 0
-0.523677 -0.055594 0
-0.215693 0.085583 0
-0.287870 0.140646 0
-0.314754 0.062856 0
-0.552928 -0.128159 0
-0.629829 -0.097770 0
-0.602374 -0.030093 0
-0.577429 -0.028217 0
-0.605051 -0.021149 0
-0.640559 -0.025047 0
-0.638018 -0.024831 0
-0.606076 -0.007178 0
-0.605587 -0.000262 0
1.000000 -0.012602 0
1.000751 -0.043136 0
1.008574 -0.079551 0
1.022709 -0.118734 0
1.042102 -0.164062 0
1.067321 -0.218757 0
1.099061 -0.286435 0
1.137926 -0.372182 0
1.184369 -0.483194 0
1.237934 -0.630370 0
1.292790 -0.827013 0
1.351071 -1.098665 0
1.362556 -1.468858 0
1.257752 -1.920107 0
0.889403 -2.438357 0
0.000000 -0.000081 0
0.000000 1.358040 0
0.000000 0.000000 0
0.000000 1.477422 0
0.000000 -0.000102 0
0.674524 -2.180304 0
1.011572 -1.099898 0
1.193085 -0.605482 0
1.259974 -0.324238 0
1.305501 -0.175795 0
1.341545 -0.069025 0
1.343526 0.026617 0
1.351012 0.129263 0
1.365534 0.282024 0
1.407354 0.563966 0
1.471070 1.184175 0
1.574164 2.267796 0
1.521219 3.602662 0
1.254030 4.893901 0
0.719753 5.990415 0
0.000000 -0.000034 0
0.000000 -3.240103 0
0.000000 0.000000 0
0.000000 -2.007490 0
0.000000 0.000026 0
-0.089506 3.017717 0
-0.171876 1.555301 0
-0.205246 0.834847 0
-0.327482 0.526706 0
-0.447620 0.414608 0
-0.533420 0.299763 0
-0.601352 0.171293 0
-0.633683 0.025909 0
-0.630048 -0.135365 0
-0.577425 -0.330681 0
-0.462043 -0.601646 0
-0.243926 -0.861008 0
-0.101477 -1.518778 0
0.134478 -3.141753 0
0.349419 -5.619609 0
0.448385 -8.343929 0
0.000000 -0.000071 0
0.000000 4.825174 0
0.000000 0.000000 0
0.000000 0.258048 0
0.000000 0.000163 0
-0.167959 0.105815 0
-0.261309 0.346269 0
-0.613405 0.020358 0
-0.385231 -0.151474 0
-0.743129 -0.183560 0
-0.997112 -0.163654 0
-0.768093 -0.039341 0
-0.791201 -0.015203 0
-0.780260 -0.047206 0
-0.721243 0.119100 0
-0.761351 0.135041 0
-0.909854 0.110512 0
-1.061805 -0.049585 0
-1.009046 -0.062801 0
-1.014168 0.014963 0
-1.099580 0.024258 0
-1.091992 -0.029740 0
-1.078776 -0.032023 0
-1.083713 -0.009915 0
-1.083532 -0.000560 0
1.000000 -0.012896 0
1.000117 -0.045350 0
1.004644 -0.085444 0
1.015268 -0.128158 0
1.029855 -0.176511 0
1.048360 -0.234442 0
1.070956 -0.305552 0
1.097545 -0.394629 0
1.127216 -0.508423 0
1.158989 -0.658086 0
1.189286 -0.849117 0
1.195680 -1.099557 0
1.157854 -1.412211 0
1.000415 -1.763988 0
0.649385 -2.089915 0
0.000000 -0.000302 0
0.000000 1.115557 0
0.000000 0.000000 0
0.000000 1.650290 0
0.000000 -0.000096 0
0.438120 -2.479958 0
0.746769 -1.278973 0
0.877966 -0.673518 0
0.929556 -0.351524 0
0.965052 -0.196430 0
0.986925 -0.072993 0
1.006089 0.031399 0
0.898983 0.125485 0
0.872912 0.258137 0
0.999451 0.557309 0
1.031421 1.170974 0
1.136086 2.249252 0
1.125364 3.677253 0
0.937614 5.111444 0
0.528377 6.336453 0
0.000000 0.000080 0
0.000000 -3.434615 0
0.000000 0.000000 0
0.000000 -2.029510 0
0.000000 -0.000028 0
-0.054806 3.060083 0
-0.110427 1.581588 0
-0.149402 0.871747 0
-0.283670 0.606023 0
-0.386078 0.478910 0
-0.439738 0.347911 0
-0.486122 0.218517 0
-0.554830 0.034577 0
-0.552139 -0.159161 0
-0.452939 -0.384546 0
-0.324474 -0.692683 0
-0.194594 -0.969477 0
-0.052335 -1.627732 0
0.092399 -3.251704 0
0.227783 -5.685802 0
0.243950 -8.256037 0
0.000000 -0.000058 0
0.000000 4.726004 0
0.000000 0.000000 0
0.000000 -0.058478 0
0.000000 -0.001110 0
-0.527824 0.083523 0
-0.475538 0.299831 0
-0.171494 0.106836 0
-0.178756 -0.109180 0
-0.506898 -0.074592 0
-0.696011 -0.060713 0
-0.787085 -0.023200 0
-0.667158 -0.047808 0
-0.920279 0.040809 0
-0.802836 0.128543 0
-0.794866 0.183565 0
-0.616096 0.064130 0
-0.614774 -0.034289 0
-0.592174 -0.060582 0
-0.535398 0.029723 0
-0.466782 0.028657 0
-0.534039 -0.038362 0
-0.520374 -0.030132 0
-0.538036 -0.004135 0
-0.538197 -0.000493 0
1.000000 -0.012675 0
0.999088 -0.046106 0
1.001325 -0.089247 0
1.007767 -0.134869 0
1.017047 -0.185240 0
1.028870 -0.245061 0
1.042823 -0.317913 0
1.058333 -0.408188 0
1.073747 -0.522518 0
1.088455 -0.670093 0
1.093541 -0.850494 0
1.070654 -1.078548 0
0.999784 -1.343888 0
0.817592 -1.594686 0
0.480495 -1.798091 0
0.000000 -0.000042 0
0.000000 0.942472 0
0.000000 0.000000 0
0.000000 1.757836 0
0.000000 -0.000085 0
0.276631 -2.658237 0
0.455011 -1.381400 0
0.553508 -0.722466 0
0.678747 -0.379973 0
0.738344 -0.212511 0
0.736582 -0.095289 0
0.694407 0.082900 0
0.614920 0.214496 0
0.513977 0.217724 0
0.550985 0.462520 0
0.741351 1.096728 0
0.829996 2.207673 0
0.837521 3.729683 0
0.688287 5.275973 0
0.392179 6.590488 0
0.000000 0.000150 0
0.000000 -3.578081 0
0.000000 0.000000 0
0.000000 -2.042665 0
0.000000 -0.000075 0
-0.030251 3.088388 0
-0.069490 1.615841 0
-0.127087 0.945722 0
-0.234419 0.678178 0
-0.305570 0.514491 0
-0.390493 0.363790 0
-0.445965 0.244951 0
-0.464836 0.068158 0
-0.444582 -0.200576 0
-0.335743 -0.476388 0
-0.159192 -0.766987 0
-0.121364 -1.035179 0
-0.018676 -1.702455 0
0.079090 -3.321030 0
0.156669 -5.716603 0
0.145847 -8.198149 0
0.000000 -0.000045 0
0.000000 4.669073 0
0.000000 0.000000 0
0.000000 -0.079183 0
0.000000 0.000738 0
-0.116707 0.410157 0
-0.498902 0.118216 0
0.130549 -0.169584 0
-0.057852 0.063184 0
0.011690 0.147482 0
-0.331630 0.015664 0
-0.138390 -0.057809 0
-0.284378 0.070040 0
-0.359991 0.039626 0
-0.558078 0.038834 0
-0.390040 0.015526 0
-0.239961 -0.004748 0
-0.096199 -0.064896 0
-0.084904 -0.113603 0
-0.022735 -0.065290 0
0.045764 0.023387 0
-0.123593 0.004557 0
-0.088434 -0.029467 0
-0.025398 0.001490 0
-0.025734 -0.000352 0
1.000000 -0.012311 0
0.998893 -0.046197 0
0.999910 -0.090997 0
1.001047 -0.138219 0
1.005271 -0.190016 0
1.010843 -0.250938 0
1.017346 -0.324407 0
1.023555 -0.414419 0
1.027761 -0.527700 0
1.030337 -0.670754 0
1.008429 -0.837723 0
0.974975 -1.039552 0
0.867221 -1.250251 0
0.663107 -1.431641 0
0.377286 -1.566655 0
0.000000 0.000009 0
0.000000 0.808350 0
0.000000 0.000000 0
0.000000 1.827354 0
0.000000 -0.000076 0
0.178319 -2.771165 0
0.292429 -1.456175 0
0.319520 -0.816708 0
0.526768 -0.469818 0
0.670762 -0.233445 0
0.561708 -0.044874 0
0.422136 0.109263 0
0.526851 0.240961 0
0.395528 0.299055 0
0.329780 0.411789 0
0.504901 0.992407 0
0.596021 2.187703 0
0.619149 3.767946 0
0.513083 5.396463 0
0.296144 6.776956 0
0.000000 0.000156 0
0.000000 -3.685534 0
0.000000 0.000000 0
0.000000 -2.048941 0
0.000000 -0.000100 0
-0.009622 3.104554 0
-0.028346 1.643562 0
-0.054361 0.977300 0
-0.132171 0.720251 0
-0.164186 0.578797 0
-0.302545 0.437763 0
-0.407892 0.266095 0
-0.373640 0.033691 0
-0.287766 -0.241782 0
-0.222725 -0.567197 0
-0.117107 -0.829886 0
-0.048771 -1.059408 0
0.018366 -1.756024 0
0.082391 -3.363926 0
0.124284 -5.728527 0
0.100318 -8.155770 0
0.000000 -0.000031 0
0.000000 4.632689 0
0.000000 0.000000 0
0.000000 -0.132457 0
0.000000 -0.000399 0
0.094382 0.402817 0
0.377940 0.141586 0
0.110782 -0.175438 0
0.107775 -0.033111 0
0.055890 0.100624 0
0.137250 0.035336 0
-0.035334 -0.053443 0
0.088393 0.094015 0
-0.004107 0.215976 0
-0.199540 0.147773 0
-0.223336 -0.020031 0
-0.100741 -0.123929 0
0.029897 -0.133526 0
0.070984 -0.107600 0
-0.052372 -0.053906 0
-0.224391 0.093205 0
-0.166374 0.047523 0
-0.101814 -0.092978 0
-0.059080 -0.044265 0
-0.059331 -0.000061 0
1.000000 -0.011966 0
0.999164 -0.046047 0
0.998364 -0.090624 0
0.997065 -0.138299 0
0.997269 -0.191509 0
0.997684 -0.252788 0
0.998464 -0.326047 0
0.996106 -0.414853 0
0.993138 -0.526858 0
0.974577 -0.657720 0
0.939806 -0.815062 0
0.868266 -0.988173 0
0.751572 -1.144291 0
0.557643 -1.281127 0
0.308226 -1.373701 0
0.000000 0.000003 0
0.000000 0.701053 0
0.000000 0.000000 0
0.000000 1.871974 0
0.000000 -0.000071 0
0.114970 -2.845391 0
0.193922 -1.471769 0
0.240697 -0.872443 0
0.414121 -0.604768 0
0.608622 -0.234873 0
0.568384 0.063832 0
0.408167 0.105208 0
0.356952 0.231525 0
0.244126 0.343849 0
0.192776 0.392521 0
0.298328 0.926333 0
0.415201 2.134554 0
0.458609 3.782763 0
0.393208 5.482696 0
0.228293 6.918861 0
0.000000 0.000118 0
0.000000 -3.767644 0
0.000000 0.000000 0
0.000000 -2.048854 0
0.000000 -0.000108 0
0.010222 3.106527 0
0.014888 1.644473 0
0.027924 1.012169 0
-0.022107 0.748465 0
-0.075878 0.623529 0
-0.191043 0.519760 0
-0.261178 0.290451 0
-0.233697 -0.008724 0
-0.131568 -0.297163 0
-0.033919 -0.585611 0
-0.025862 -0.878319 0
0.031587 -1.121883 0
0.062575 -1.786399 0
0.102567 -3.388818 0
0.120486 -5.728078 0
0.084950 -8.118608 0
0.000000 -0.000015 0
0.000000 4.604900 0
0.000000 0.000000 0
0.000000 -0.018815 0
0.000000 0.000698 0
0.172710 0.168273 0
0.486078 0.107719 0
0.251786 0.003320 0
0.171829 0.098313 0
0.088726 0.128616 0
0.126641 0.074047 0