# vtk DataFile Version 2.0
generated by CFD-lab course output (written by Tobias Neckel) 
ASCII

DATASET STRUCTURED_GRID
DIMENSIONS  81 26 1 
POINTS 2106 float

0.000000 0.000000 0
0.125000 0.000000 0
0.250000 0.000000 0
0.375000 0.000000 0
0.500000 0.000000 0
0.625000 0.000000 0
0.750000 0.000000 0
0.875000 0.000000 0
1.000000 0.000000 0
1.125000 0.000000 0
1.250000 0.000000 0
1.375000 0.000000 0
1.500000 0.000000 0
1.625000 0.000000 0
1.750000 0.000000 0
1.875000 0.000000 0
2.000000 0.000000 0
2.125000 0.000000 0
2.250000 0.000000 0
2.375000 0.000000 0
2.500000 0.000000 0
2.625000 0.000000 0
2.750000 0.000000 0
2.875000 0.000000 0
3.000000 0.000000 0
3.125000 0.000000 0
3.250000 0.000000 0
3.375000 0.000000 0
3.500000 0.000000 0
3.625000 0.000000 0
3.750000 0.000000 0
3.875000 0.000000 0
4.000000 0.000000 0
4.125000 0.000000 0
4.250000 0.000000 0
4.375000 0.000000 0
4.500000 0.000000 0
4.625000 0.000000 0
4.750000 0.000000 0
4.875000 0.000000 0
5.000000 0.000000 0
5.125000 0.000000 0
5.250000 0.000000 0
5.375000 0.000000 0
5.500000 0.000000 0
5.625000 0.000000 0
5.750000 0.000000 0
5.875000 0.000000 0
6.000000 0.000000 0
6.125000 0.000000 0
6.250000 0.000000 0
6.375000 0.000000 0
6.500000 0.000000 0
6.625000 0.000000 0
6.750000 0.000000 0
6.875000 0.000000 0
7.000000 0.000000 0
7.125000 0.000000 0
7.250000 0.000000 0
7.375000 0.000000 0
7.500000 0.000000 0
7.625000 0.000000 0
7.750000 0.000000 0
7.875000 0.000000 0
8.000000 0.000000 0
8.125000 0.000000 0
8.250000 0.000000 0
8.375000 0.000000 0
8.500000 0.000000 0
8.625000 0.000000 0
8.750000 0.000000 0
8.875000 0.000000 0
9.000000 0.000000 0
9.125000 0.000000 0
9.250000 0.000000 0
9.375000 0.000000 0
9.500000 0.000000 0
9.625000 0.000000 0
9.750000 0.000000 0
9.875000 0.000000 0
10.000000 0.000000 0
0.000000 0.080000 0
0.125000 0.080000 0
0.250000 0.080000 0
0.375000 0.080000 0
0.500000 0.080000 0
0.625000 0.080000 0
0.750000 0.080000 0
0.875000 0.080000 0
1.000000 0.080000 0
1.125000 0.080000 0
1.250000 0.080000 0
1.375000 0.080000 0
1.500000 0.080000 0
1.625000 0.080000 0
1.750000 0.080000 0
1.875000 0.080000 0
2.000000 0.080000 0
2.125000 0.080000 0
2.250000 0.080000 0
2.375000 0.080000 0
2.500000 0.080000 0
2.625000 0.080000 0
2.750000 0.080000 0
2.875000 0.080000 0
3.000000 0.080000 0
3.125000 0.080000 0
3.250000 0.080000 0
3.375000 0.080000 0
3.500000 0.080000 0
3.625000 0.080000 0
3.750000 0.080000 0
3.875000 0.080000 0
4.000000 0.080000 0
4.125000 0.080000 0
4.250000 0.080000 0
4.375000 0.080000 0
4.500000 0.080000 0
4.625000 0.080000 0
4.750000 0.080000 0
4.875000 0.080000 0
5.000000 0.080000 0
5.125000 0.080000 0
5.250000 0.080000 0
5.375000 0.080000 0
5.500000 0.080000 0
5.625000 0.080000 0
5.750000 0.080000 0
5.875000 0.080000 0
6.000000 0.080000 0
6.125000 0.080000 0
6.250000 0.080000 0
6.375000 0.080000 0
6.500000 0.080000 0
6.625000 0.080000 0
6.750000 0.080000 0
6.875000 0.080000 0
7.000000 0.080000 0
7.125000 0.080000 0
7.250000 0.080000 0
7.375000 0.080000 0
7.500000 0.080000 0
7.625000 0.080000 0
7.750000 0.080000 0
7.875000 0.080000 0
8.000000 0.080000 0
8.125000 0.080000 0
8.250000 0.080000 0
8.375000 0.080000 0
8.500000 0.080000 0
8.625000 0.080000 0
8.750000 0.080000 0
8.875000 0.080000 0
9.000000 0.080000 0
9.125000 0.080000 0
9.250000 0.080000 0
9.375000 0.080000 0
9.500000 0.080000 0
9.625000 0.080000 0
9.750000 0.080000 0
9.875000 0.080000 0
10.000000 0.080000 0
0.000000 0.160000 0
0.125000 0.160000 0
0.250000 0.160000 0
0.375000 0.160000 0
0.500000 0.160000 0
0.625000 0.160000 0
0.750000 0.160000 0
0.875000 0.160000 0
1.000000 0.160000 0
1.125000 0.160000 0
1.250000 0.160000 0
1.375000 0.160000 0
1.500000 0.160000 0
1.625000 0.160000 0
1.750000 0.160000 0
1.875000 0.160000 0
2.000000 0.160000 0
2.125000 0.160000 0
2.250000 0.160000 0
2.375000 0.160000 0
2.500000 0.160000 0
2.625000 0.160000 0
2.750000 0.160000 0
2.875000 0.160000 0
3.000000 0.160000 0
3.125000 0.160000 0
3.250000 0.160000 0
3.375000 0.160000 0
3.500000 0.160000 0
3.625000 0.160000 0
3.750000 0.160000 0
3.875000 0.160000 0
4.000000 0.160000 0
4.125000 0.160000 0
4.250000 0.160000 0
4.375000 0.160000 0
4.500000 0.160000 0
4.625000 0.160000 0
4.750000 0.160000 0
4.875000 0.160000 0
5.000000 0.160000 0
5.125000 0.160000 0
5.250000 0.160000 0
5.375000 0.160000 0
5.500000 0.160000 0
5.625000 0.160000 0
5.750000 0.160000 0
5.875000 0.160000 0
6.000000 0.160000 0
6.125000 0.160000 0
6.250000 0.160000 0
6.375000 0.160000 0
6.500000 0.160000 0
6.625000 0.160000 0
6.750000 0.160000 0
6.875000 0.160000 0
7.000000 0.160000 0
7.125000 0.160000 0
7.250000 0.160000 0
7.375000 0.160000 0
7.500000 0.160000 0
7.625000 0.160000 0
7.750000 0.160000 0
7.875000 0.160000 0
8.000000 0.160000 0
8.125000 0.160000 0
8.250000 0.160000 0
8.375000 0.160000 0
8.500000 0.160000 0
8.625000 0.160000 0
8.750000 0.160000 0
8.875000 0.160000 0
9.000000 0.160000 0
9.125000 0.160000 0
9.250000 0.160000 0
9.375000 0.160000 0
9.500000 0.160000 0
9.625000 0.160000 0
9.750000 0.160000 0
9.875000 0.160000 0
10.000000 0.160000 0
0.000000 0.240000 0
0.125000 0.240000 0
0.250000 0.240000 0
0.375000 0.240000 0
0.500000 0.240000 0
0.625000 0.240000 0
0.750000 0.240000 0
0.875000 0.240000 0
1.000000 0.240000 0
1.125000 0.240000 0
1.250000 0.240000 0
1.375000 0.240000 0
1.500000 0.240000 0
1.625000 0.240000 0
1.750000 0.240000 0
1.875000 0.240000 0
2.000000 0.240000 0
2.125000 0.240000 0
2.250000 0.240000 0
2.375000 0.240000 0
2.500000 0.240000 0
2.625000 0.240000 0
2.750000 0.240000 0
2.875000 0.240000 0
3.000000 0.240000 0
3.125000 0.240000 0
3.250000 0.240000 0
3.375000 0.240000 0
3.500000 0.240000 0
3.625000 0.240000 0
3.750000 0.240000 0
3.875000 0.240000 0
4.000000 0.240000 0
4.125000 0.240000 0
4.250000 0.240000 0
4.375000 0.240000 0
4.500000 0.240000 0
4.625000 0.240000 0
4.750000 0.240000 0
4.875000 0.240000 0
5.000000 0.240000 0
5.125000 0.240000 0
5.250000 0.240000 0
5.375000 0.240000 0
5.500000 0.240000 0
5.625000 0.240000 0
5.750000 0.240000 0
5.875000 0.240000 0
6.000000 0.240000 0
6.125000 0.240000 0
6.250000 0.240000 0
6.375000 0.240000 0
6.500000 0.240000 0
6.625000 0.240000 0
6.750000 0.240000 0
6.875000 0.240000 0
7.000000 0.240000 0
7.125000 0.240000 0
7.250000 0.240000 0
7.375000 0.240000 0
7.500000 0.240000 0
7.625000 0.240000 0
7.750000 0.240000 0
7.875000 0.240000 0
8.000000 0.240000 0
8.125000 0.240000 0
8.250000 0.240000 0
8.375000 0.240000 0
8.500000 0.240000 0
8.625000 0.240000 0
8.750000 0.240000 0
8.875000 0.240000 0
9.000000 0.240000 0
9.125000 0.240000 0
9.250000 0.240000 0
9.375000 0.240000 0
9.500000 0.240000 0
9.625000 0.240000 0
9.750000 0.240000 0
9.875000 0.240000 0
10.000000 0.240000 0
0.000000 0.320000 0
0.125000 0.320000 0
0.250000 0.320000 0
0.375000 0.320000 0
0.500000 0.320000 0
0.625000 0.320000 0
0.750000 0.320000 0
0.875000 0.320000 0
1.000000 0.320000 0
1.125000 0.320000 0
1.250000 0.320000 0
1.375000 0.320000 0
1.500000 0.320000 0
1.625000 0.320000 0
1.750000 0.320000 0
1.875000 0.320000 0
2.000000 0.320000 0
2.125000 0.320000 0
2.250000 0.320000 0
2.375000 0.320000 0
2.500000 0.320000 0
2.625000 0.320000 0
2.750000 0.320000 0
2.875000 0.320000 0
3.000000 0.320000 0
3.125000 0.320000 0
3.250000 0.320000 0
3.375000 0.320000 0
3.500000 0.320000 0
3.625000 0.320000 0
3.750000 0.320000 0
3.875000 0.320000 0
4.000000 0.320000 0
4.125000 0.320000 0
4.250000 0.320000 0
4.375000 0.320000 0
4.500000 0.320000 0
4.625000 0.320000 0
4.750000 0.320000 0
4.875000 0.320000 0
5.000000 0.320000 0
5.125000 0.320000 0
5.250000 0.320000 0
5.375000 0.320000 0
5.500000 0.320000 0
5.625000 0.320000 0
5.750000 0.320000 0
5.875000 0.320000 0
6.000000 0.320000 0
6.125000 0.320000 0
6.250000 0.320000 0
6.375000 0.320000 0
6.500000 0.320000 0
6.625000 0.320000 0
6.750000 0.320000 0
6.875000 0.320000 0
7.000000 0.320000 0
7.125000 0.320000 0
7.250000 0.320000 0
7.375000 0.320000 0
7.500000 0.320000 0
7.625000 0.320000 0
7.750000 0.320000 0
7.875000 0.320000 0
8.000000 0.320000 0
8.125000 0.320000 0
8.250000 0.320000 0
8.375000 0.320000 0
8.500000 0.320000 0
8.625000 0.320000 0
8.750000 0.320000 0
8.875000 0.320000 0
9.000000 0.320000 0
9.125000 0.320000 0
9.250000 0.320000 0
9.375000 0.320000 0
9.500000 0.320000 0
9.625000 0.320000 0
9.750000 0.320000 0
9.875000 0.320000 0
10.000000 0.320000 0
0.000000 0.400000 0
0.125000 0.400000 0
0.250000 0.400000 0
0.375000 0.400000 0
0.500000 0.400000 0
0.625000 0.400000 0
0.750000 0.400000 0
0.875000 0.400000 0
1.000000 0.400000 0
1.125000 0.400000 0
1.250000 0.400000 0
1.375000 0.400000 0
1.500000 0.400000 0
1.625000 0.400000 0
1.750000 0.400000 0
1.875000 0.400000 0
2.000000 0.400000 0
2.125000 0.400000 0
2.250000 0.400000 0
2.375000 0.400000 0
2.500000 0.400000 0
2.625000 0.400000 0
2.750000 0.400000 0
2.875000 0.400000 0
3.000000 0.400000 0
3.125000 0.400000 0
3.250000 0.400000 0
3.375000 0.400000 0
3.500000 0.400000 0
3.625000 0.400000 0
3.750000 0.400000 0
3.875000 0.400000 0
4.000000 0.400000 0
4.125000 0.400000 0
4.250000 0.400000 0
4.375000 0.400000 0
4.500000 0.400000 0
4.625000 0.400000 0
4.750000 0.400000 0
4.875000 0.400000 0
5.000000 0.400000 0
5.125000 0.400000 0
5.250000 0.400000 0
5.375000 0.400000 0
5.500000 0.400000 0
5.625000 0.400000 0
5.750000 0.400000 0
5.875000 0.400000 0
6.000000 0.400000 0
6.125000 0.400000 0
6.250000 0.400000 0
6.375000 0.400000 0
6.500000 0.400000 0
6.625000 0.400000 0
6.750000 0.400000 0
6.875000 0.400000 0
7.000000 0.400000 0
7.125000 0.400000 0
7.250000 0.400000 0
7.375000 0.400000 0
7.500000 0.400000 0
7.625000 0.400000 0
7.750000 0.400000 0
7.875000 0.400000 0
8.000000 0.400000 0
8.125000 0.400000 0
8.250000 0.400000 0
8.375000 0.400000 0
8.500000 0.400000 0
8.625000 0.400000 0
8.750000 0.400000 0
8.875000 0.400000 0
9.000000 0.400000 0
9.125000 0.400000 0
9.250000 0.400000 0
9.375000 0.400000 0
9.500000 0.400000 0
9.625000 0.400000 0
9.750000 0.400000 0
9.875000 0.400000 0
10.000000 0.400000 0
0.000000 0.480000 0
0.125000 0.480000 0
0.250000 0.480000 0
0.375000 0.480000 0
0.500000 0.480000 0
[...]
POINT_DATA 2106 

VECTORS velocity float
0.500000 0.000000 0
-0.000000 0.000000 0
0.000000 0.000000 0
0.000000 0.000000 0
0.000001 0.000000 0
0.000002 0.000000 0
0.000003 0.000000 0
0.000005 0.000000 0
0.000008 0.000000 0
0.000012 0.000000 0
0.000018 0.000000 0
0.000027 0.000000 0
0.000038 0.000000 0
0.000043 0.000000 0
0.000004 0.000000 0
-0.000261 0.000000 0
-0.000583 0.000000 0
0.000203 0.000000 0
0.000399 0.000000 0
0.000020 0.000000 0
-0.000188 0.000000 0
-0.000136 0.000000 0
-0.000058 0.000000 0
-0.000053 0.000000 0
-0.000081 0.000000 0
-0.000095 0.000000 0
-0.000086 0.000000 0
-0.000065 0.000000 0
-0.000038 0.000000 0
-0.000005 0.000000 0
0.000053 0.000000 0
0.000244 0.000000 0
0.001042 0.000000 0
-0.002576 0.000000 0
-0.000862 0.000000 0
0.000000 0.000000 0
0.000000 0.000000 0
0.000000 0.000000 0
0.000000 0.000000 0
0.000000 0.000000 0
0.000041 0.000000 0
0.000032 0.000000 0
0.000022 0.000000 0
0.000025 0.000000 0
0.000018 0.000000 0
0.000011 0.000000 0
0.000015 0.000000 0
0.000027 0.000000 0
0.000040 0.000000 0
0.000037 0.000000 0
0.000029 0.000000 0
-0.000036 0.000000 0
-0.000231 0.000000 0
-0.000267 0.000000 0
0.001242 0.000000 0
0.001524 0.000000 0
-0.002606 0.000000 0
-0.000105 0.000000 0
0.000138 0.000000 0
-0.000033 0.000000 0
-0.000023 0.000000 0
-0.000046 0.000000 0
-0.000030 0.000000 0
-0.000003 0.000000 0
-0.000011 0.000000 0
-0.000041 0.000000 0
-0.000049 0.000000 0
-0.000065 0.000000 0
-0.000074 0.000000 0
-0.000051 0.000000 0
-0.000006 0.000000 0
0.000043 0.000000 0
0.000093 0.000000 0
0.000140 0.000000 0
0.000191 0.000000 0
0.000228 0.000000 0
0.000238 0.000000 0
0.000226 0.000000 0
0.000198 0.000000 0
0.000165 0.000000 0
0.000156 0.000000 0
1.000000 -0.001826 0
1.007165 -0.006242 0
1.022551 -0.011913 0
1.047426 -0.018656 0
1.083507 -0.026780 0
1.133196 -0.036754 0
1.199735 -0.049399 0
1.287959 -0.064590 0
1.401413 -0.086722 0
1.556391 -0.117881 0
1.766720 -0.169507 0
2.075410 -0.237507 0
2.495293 -0.336036 0
3.109930 -0.452461 0
3.925984 -0.660757 0
5.271711 -0.703354 0
6.161359 -0.472092 0
6.665978 -0.291756 0
6.982717 -0.205571 0
7.245138 -0.178223 0
7.510515 -0.160226 0
7.734650 -0.128889 0
7.900222 -0.090612 0
8.007155 -0.053584 0
8.064876 -0.021528 0
8.078878 0.011106 0
8.045533 0.050278 0
7.947621 0.110508 0
7.743665 0.204347 0
7.371907 0.328889 0
6.798889 0.476544 0
5.941468 0.643374 0
4.800795 0.846138 0
3.375009 0.999922 0
1.724303 1.035728 0
0.000000 -0.000552 0
0.000000 -0.516716 0
0.000000 0.000000 0
0.000000 -0.903502 0
0.000000 -0.000024 0
-2.157115 1.313676 0
-3.190791 0.565667 0
-3.543256 0.229028 0
-3.780228 0.111337 0
-3.890893 0.056969 0
-3.946817 0.028879 0
-3.976020 0.013421 0
-3.982059 0.001380 0
-3.966947 -0.011209 0
-3.929948 -0.027550 0
-3.861907 -0.052916 0
-3.740573 -0.101267 0
-3.513586 -0.213284 0
-3.014194 -0.499804 0
-1.888952 -1.282962 0
1.097860 -2.935281 0
6.032210 -2.968321 0
8.539701 -1.381583 0
9.644502 -0.564373 0
10.001169 -0.184639 0
10.075965 -0.047895 0
10.089584 -0.009354 0
10.091050 0.000484 0
10.087602 0.002503 0
10.084076 -0.000129 0
10.091947 -0.001867 0
10.096726 0.000420 0
10.095124 0.002402 0
10.092722 0.002603 0
10.090931 0.001919 0
10.090963 0.001087 0
10.092457 0.001087 0
10.092795 0.001949 0
10.091400 0.002983 0
10.088347 0.003891 0
10.083900 0.004175 0
10.080009 0.003767 0
10.077205 0.003395 0
10.074348 0.003023 0
10.071958 0.001472 0
10.071650 0.000199 0
1.000000 -0.004581 0
1.008208 -0.014424 0
1.024690 -0.025761 0
1.050339 -0.039005 0
1.086658 -0.054886 0
1.135865 -0.074380 0
1.201101 -0.099042 0
1.286608 -0.129067 0
1.398202 -0.171790 0
1.544581 -0.233791 0
1.750735 -0.332166 0
2.030203 -0.466281 0
2.435641 -0.662088 0
3.016727 -0.915637 0
3.861509 -1.383534 0
5.364194 -1.430635 0
6.026995 -0.892326 0
6.371462 -0.525665 0
6.558884 -0.370658 0
6.737457 -0.337787 0
6.976975 -0.313284 0
7.177748 -0.249409 0
7.318662 -0.174400 0
7.409089 -0.105375 0
7.460050 -0.045899 0
7.480454 0.012382 0
7.472018 0.084007 0
7.423320 0.193198 0
7.308988 0.368460 0
7.063688 0.604660 0
6.577940 0.915484 0
5.825044 1.278783 0
4.744883 1.642536 0
3.445044 1.968957 0
1.826756 2.160008 0
0.000000 -0.000021 0
0.000000 -1.103576 0
0.000000 0.000000 0
0.000000 -1.380582 0
0.000000 -0.000030 0
-1.166326 2.042104 0
-1.733661 0.887128 0
-2.075488 0.377238 0
-2.315954 0.222486 0
-2.394015 0.106615 0
-2.450298 0.054479 0
-2.476871 0.022553 0
-2.480236 -0.005808 0
-2.456645 -0.033353 0
-2.402990 -0.067228 0
-2.324479 -0.121202 0
-2.189628 -0.222928 0
-1.964448 -0.464885 0
-1.455051 -1.039769 0
-0.007245 -2.631718 0
2.465005 -5.069546 0
5.764148 -4.762781 0
7.124968 -2.311871 0
7.696941 -0.935344 0
7.751335 -0.276140 0
7.683869 -0.056589 0
7.663448 -0.009659 0
7.661097 0.001264 0
7.658741 0.004459 0
7.647757 -0.002785 0
7.663811 -0.008101 0
7.673305 -0.002038 0
7.671169 0.002557 0
7.670364 0.002678 0
7.670028 0.001121 0
7.671968 -0.000982 0
7.677193 -0.001178 0
7.680793 0.000671 0
7.682713 0.002841 0
7.683285 0.004794 0
7.681448 0.005331 0
7.680363 0.004280 0
7.681136 0.003617 0
7.680676 0.003353 0
7.679006 0.001721 0
7.678567 0.000376 0
1.000000 -0.007076 0
1.007337 -0.022040 0
1.022744 -0.038875 0
1.046866 -0.058314 0
1.080990 -0.081514 0
1.127115 -0.109995 0
1.188209 -0.145872 0
1.267797 -0.190732 0
1.375341 -0.251822 0
1.508040 -0.343500 0
1.695655 -0.480303 0
1.946004 -0.675845 0
2.297699 -0.967410 0
2.813771 -1.365015 0
3.630565 -2.163134 0
5.221285 -2.089264 0
5.362865 -1.116742 0
5.371479 -0.632164 0
5.342853 -0.439806 0
5.314713 -0.445801 0
5.518285 -0.442011 0
5.682974 -0.347567 0
5.791830 -0.238669 0
5.856212 -0.144071 0
5.893845 -0.067200 0
5.917362 0.003448 0
5.935032 0.086844 0
5.951733 0.214848 0
5.969580 0.434512 0
5.938226 0.796760 0
5.687210 1.269277 0
5.147630 1.816532 0
4.316550 2.369339 0
3.159738 2.867524 0
1.723617 3.240557 0
0.000000 0.000085 0
0.000000 -1.685204 0
0.000000 0.000000 0
0.000000 -1.649978 0
0.000000 -0.000051 0
-0.674936 2.423218 0
-0.989216 1.147531 0
-1.357568 0.601695 0
-1.490434 0.315193 0
-1.551079 0.142949 0
-1.636205 0.081906 0
-1.683638 0.032580 0
-1.693514 -0.011565 0
-1.664001 -0.060648 0
-1.591225 -0.112137 0
-1.487857 -0.189468 0
-1.330480 -0.331688 0
-1.078677 -0.683415 0
-0.597333 -1.752415 0
0.796409 -3.791799 0
2.498706 -6.628974 0
5.123107 -5.950698 0
4.838522 -2.618571 0
4.709184 -0.965249 0
4.337369 -0.176274 0
3.863007 0.008351 0
3.773341 0.005218 0
3.754795 0.003494 0
3.797277 0.011039 0
3.689406 -0.003375 0
3.784582 -0.018220 0
3.824758 -0.004291 0
3.805474 0.004283 0
3.809002 0.003332 0
3.810002 0.000890 0
3.810420 -0.003500 0
3.825543 -0.004563 0
3.834416 -0.001586 0
3.836982 0.001387 0
3.841413 0.004698 0
3.834769 0.006043 0
3.829665 0.003965 0
3.836827 0.003193 0
3.839457 0.004384 0
3.835470 0.002820 0
3.835010 0.000758 0
1.000000 -0.009273 0
1.006194 -0.028977 0
1.020322 -0.051058 0
1.042492 -0.076281 0
1.073763 -0.106244 0
1.115880 -0.142998 0
1.171355 -0.189076 0
1.243549 -0.248830 0
1.339967 -0.325544 0
1.459232 -0.438790 0
1.619609 -0.612461 0
1.825468 -0.851586 0
2.092983 -1.217456 0
2.473826 -1.768669 0
3.103964 -2.924342 0
4.377972 -2.539306 0
3.645188 -0.988449 0
3.023245 -0.512855 0
2.657434 -0.334327 0
2.272520 -0.450062 0
3.092791 -0.548970 0
3.484993 -0.424477 0
3.668024 -0.285271 0
3.760003 -0.170664 0
3.809557 -0.085035 0
3.840452 -0.013976 0
3.867800 0.062011 0
3.906976 0.171089 0
3.988239 0.377105 0
4.109037 0.785378 0
4.225767 1.421466 0
4.051587 2.156005 0
3.548601 2.914788 0
2.651769 3.628435 0
1.488455 4.182241 0
0.000000 0.000133 0
0.000000 -2.206538 0
0.000000 0.000000 0
0.000000 -1.812585 0
0.000000 -0.000075 0
-0.408824 2.675201 0
-0.663701 1.324013 0
-0.882460 0.698017 0
-0.926320 0.346332 0
-1.046285 0.199907 0
-1.158947 0.139317 0
-1.207948 0.059230 0
-1.235210 -0.018377 0
-1.209059 -0.098818 0
-1.124702 -0.179960 0
-0.946928 -0.288080 0
-0.767182 -0.484803 0
-0.551061 -0.934100 0
-0.027389 -2.239825 0
0.887339 -4.613183 0
2.145116 -7.838634 0
3.849832 -6.260265 0
1.578071 -2.046961 0
0.351181 -0.614607 0
0.069868 0.265411 0
0.113214 0.304387 0
0.591751 0.059595 0
0.349601 -0.014057 0
0.685061 0.046306 0
0.261668 0.005338 0
0.925947 -0.094727 0
0.450928 -0.015411 0
0.604920 0.012639 0
0.759435 -0.000221 0
0.588828 0.000212 0
0.564476 -0.010930 0
0.694748 -0.016537 0
0.771877 -0.006652 0
0.777271 -0.001638 0
0.816418 0.006209 0
0.804133 0.012848 0
0.772551 0.002961 0
0.827769 -0.002652 0
0.864033 0.004220 0
0.845387 0.004565 0
0.845340 0.000966 0
1.000000 -0.011037 0
1.004360 -0.035042 0
1.017173 -0.062103 0
1.036960 -0.092514 0
1.064673 -0.128481 0
1.101778 -0.172452 0
1.150179 -0.227578 0
1.212818 -0.298641 0
1.292419 -0.389857 0
1.398295 -0.522469 0
1.526210 -0.714692 0
1.654627 -0.978803 0
1.843142 -1.382357 0
2.050849 -2.012040 0
2.309684 -3.381785 0
2.007391 -2.435646 0
-0.009076 -0.249716 0
0.002714 0.000000 0
0.000222 0.040659 0
0.107389 -0.724428 0
1.565157 -1.217993 0
2.146155 -0.715716 0
2.394135 -0.414675 0
2.520376 -0.234651 0
2.584247 -0.118687 0
2.616211 -0.033827 0
2.631214 0.044270 0
2.644119 0.137768 0
2.672487 0.305194 0
2.766663 0.644743 0
2.921369 1.306046 0
2.994809 2.249918 0
2.723995 3.265222 0
2.120595 4.186018 0
1.203527 4.937690 0
0.000000 0.000093 0
0.000000 -2.637808 0
0.000000 0.000000 0
0.000000 -1.911658 0
0.000000 -0.000085 0
-0.251383 2.847985 0
-0.447019 1.450657 0
-0.563176 0.769771 0
-0.617278 0.420041 0
-0.821723 0.291830 0
-0.914684 0.185370 0
-0.971052 0.081388 0
-0.999385 -0.010854 0
-1.001823 -0.131373 0
-0.913840 -0.279902 0
-0.737038 -0.418282 0
-0.538436 -0.585043 0
-0.362147 -1.156882 0
0.130319 -2.672993 0
0.758640 -5.182203 0
1.481968 -8.524970 0
1.753293 -5.587791 0
-0.000014 -0.379435 0
-0.000099 0.000000 0
-0.000141 -0.023977 0
-0.642887 -0.325656 0
-0.608926 -0.146071 0
-0.218974 -0.056225 0
-0.422140 0.067315 0
-0.234401 -0.157544 0
-0.258208 -0.139347 0
0.002218 0.201165 0
-0.279125 -0.193164 0
0.016892 0.013628 0
-0.368229 0.125662 0
-0.279589 -0.071291 0
-0.231215 -0.137301 0
-0.158088 -0.054402 0
-0.149668 -0.027122 0
-0.094973 -0.012495 0
-0.078702 0.034116 0
-0.078939 -0.011164 0
-0.056398 -0.055357 0
-0.020685 -0.006893 0
-0.004892 0.014782 0
-0.004526 0.000820 0
1.000000 -0.012061 0
1.000886 -0.039963 0
1.013080 -0.071919 0
1.030176 -0.106679 0
1.053805 -0.147725 0
1.085188 -0.197720 0
1.125591 -0.260140 0
1.176712 -0.339861 0
1.240196 -0.444247 0
1.322245 -0.588414 0
1.408221 -0.776511 0
1.497299 -1.054421 0
1.594524 -1.471037 0
1.630920 -2.067254 0
1.451609 -2.896527 0
0.159818 0.000134 0
-1.215607 1.685989 0
-0.690590 0.000000 0
-0.404975 1.216438 0
0.000000 -0.000004 0
1.133704 -1.837125 0
1.547877 -0.955021 0
1.748142 -0.524771 0
1.869656 -0.292335 0
1.927700 -0.146368 0
1.954948 -0.044034 0
1.958953 0.044151 0
1.956402 0.144675 0
1.959893 0.298677 0
1.978997 0.626094 0
2.081238 1.275454 0
2.183299 2.282325 0
2.057350 3.474286 0
1.653492 4.601536 0
0.945411 5.539423 0
0.000000 -0.000005 0
0.000000 -2.976934 0
0.000000 0.000000 0
0.000000 -1.973476 0
0.000000 -0.000081 0
-0.156469 2.961293 0
-0.289595 1.523560 0
-0.355075 0.806982 0
-0.466118 0.511801 0
-0.609963 0.390247 0
-0.683032 0.234887 0
-0.777048 0.113438 0
-0.834196 0.001316 0
-0.829687 -0.153568 0
-0.740140 -0.349423 0
-0.599005 -0.528339 0
-0.400260 -0.724734 0
-0.186107 -1.362104 0
0.172235 -2.957129 0
0.534016 -5.478239 0
0.845154 -8.475213 0
0.242839 0.000117 0
0.119574 5.011369 0
1.094956 0.000000 0
1.079771 -0.017475 0
0.000000 -0.000365 0
-0.143948 -0.221532 0
-0.343678 -0.133601 0
-0.657036 0.056177 0
-0.335125 -0.099581 0
-0.709956 -0.246165 0
-0.183731 -0.002026 0
-0.224422 0.003246 0
-0.383564 0.056804 0
-0.309257 0.189958 0
-0.545091 -0.098621 0
-0.751573 -0.094299 0
-0.785513 -0.058844 0
-0.735694 -0.042034 0
-0.738061 -0.039211 0
-0.713299 0.002585 0
-0.678963 -0.011315 0
-0.704471 -0.039936 0
-0.705225 -0.028746 0
-0.669514 -0.005778 0
-0.669019 0.000501 0
1.000000 -0.011602 0
1.000036 -0.043410 0
1.008549 -0.080847 0
1.023140 -0.118576 0
1.042265 -0.163686 0
1.067268 -0.218394 0
1.098888 -0.286152 0
1.137706 -0.371986 0
1.184151 -0.482996 0
1.237675 -0.630003 0
1.292353 -0.826725 0
1.350488 -1.098034 0
1.361966 -1.467873 0
1.256690 -1.920573 0
0.888746 -2.440278 0
0.000000 0.000068 0
0.000000 1.359251 0
0.000000 0.000000 0
0.000000 1.473998 0
0.000000 -0.000004 0
0.673095 -2.191978 0
1.029952 -1.108955 0
1.169297 -0.620613 0
1.282075 -0.349567 0
1.336447 -0.173273 0
1.364157 -0.053828 0
1.363046 0.043340 0
1.341138 0.137168 0
1.385359 0.290734 0
1.377308 0.567083 0
1.464903 1.175293 0
1.573661 2.265208 0
1.523147 3.604300 0
1.254423 4.897660 0
0.720429 5.995926 0
0.000000 -0.000053 0
0.000000 -3.243017 0
0.000000 0.000000 0
0.000000 -2.011780 0
0.000000 -0.000068 0
-0.097051 3.033325 0
-0.185384 1.577765 0
-0.251979 0.882746 0
-0.348863 0.583168 0
-0.456935 0.430654 0
-0.535671 0.292304 0
-0.634873 0.178132 0
-0.677124 0.022834 0
-0.680431 -0.191569 0
-0.606587 -0.427540 0
-0.456111 -0.635806 0
-0.262496 -0.849298 0
-0.097923 -1.523280 0
0.135864 -3.133872 0
0.351604 -5.612872 0
0.449984 -8.338618 0
0.000000 0.000112 0
0.000000 4.822986 0
0.000000 0.000000 0
0.000000 0.219353 0
0.000000 -0.000022 0
0.077057 0.064059 0
-0.752727 0.272149 0
-0.821649 0.061839 0
-0.589521 -0.123678 0
-0.782100 -0.236241 0
-0.960553 -0.109578 0
-0.578836 -0.065272 0
-0.828756 0.067921 0
-0.625978 0.229038 0
-0.909809 0.211790 0
-1.087085 0.016568 0
-1.108543 -0.064566 0
-1.063544 -0.057493 0
-1.100834 -0.026830 0
-1.105593 -0.003708 0
-1.092627 -0.016815 0
-1.087254 -0.038551 0
-1.102861 -0.029267 0
-1.105014 -0.008392 0
-1.104810 0.000188 0
1.000000 -0.012081 0
1.001194 -0.045431 0
1.003558 -0.086703 0
1.015760 -0.128255 0
1.030044 -0.175966 0
1.048304 -0.233956 0
1.070812 -0.305218 0
1.097409 -0.394428 0
1.127162 -0.508226 0
1.159007 -0.657662 0
1.189149 -0.848710 0
1.194972 -1.098971 0
1.158892 -1.411004 0
0.998818 -1.764391 0
0.648593 -2.092243 0
0.000000 0.000066 0
0.000000 1.117122 0
0.000000 0.000000 0
0.000000 1.647212 0
0.000000 -0.000009 0
0.440129 -2.496292 0
0.750932 -1.272590 0
0.818788 -0.686130 0
0.914715 -0.399311 0
1.040848 -0.198900 0
1.025508 -0.061057 0
1.020847 0.058883 0
0.988329 0.130396 0
0.974154 0.275530 0
1.006580 0.575186 0
1.047132 1.149789 0
1.138602 2.245051 0
1.127080 3.678599 0
0.939002 5.115276 0
0.529948 6.342255 0
0.000000 -0.000033 0
0.000000 -3.438036 0
0.000000 0.000000 0
0.000000 -2.035556 0
0.000000 -0.000049 0
-0.058411 3.079938 0
-0.114703 1.622713 0
-0.160263 0.911609 0
-0.202810 0.642973 0
-0.274401 0.509803 0
-0.374524 0.348766 0
-0.477983 0.203967 0
-0.547702 0.030472 0
-0.555853 -0.198713 0
-0.479331 -0.492989 0
-0.370982 -0.748558 0
-0.175952 -0.953975 0
-0.052996 -1.617055 0
0.092622 -3.244827 0
0.229072 -5.679277 0
0.245064 -8.250188 0
0.000000 0.000101 0
0.000000 4.723362 0
0.000000 0.000000 0
0.000000 0.032636 0
0.000000 0.000428 0
-0.539324 0.260210 0
-0.429339 0.441569 0
-0.375506 -0.048277 0
-0.327006 -0.124894 0
-0.757086 -0.008706 0
-0.882853 -0.132116 0
-0.769005 -0.081106 0
-0.968083 0.086973 0
-0.797454 0.241830 0
-0.702843 0.196487 0
-0.689893 0.032889 0
-0.604110 -0.073912 0
-0.548957 -0.046969 0
-0.532944 -0.012301 0
-0.499351 -0.002670 0
-0.455322 -0.023054 0
-0.494521 -0.033388 0
-0.495294 -0.017381 0
-0.513048 -0.004532 0
-0.513166 0.000240 0
1.000000 -0.012363 0
1.000209 -0.045683 0
1.000344 -0.090166 0
1.007989 -0.135524 0
1.017265 -0.184513 0
1.028939 -0.244483 0
1.042872 -0.317576 0
1.058444 -0.408048 0
1.074002 -0.522417 0
1.088995 -0.669672 0
1.094009 -0.849741 0
1.070605 -1.078668 0
1.000480 -1.342332 0
0.816830 -1.593980 0
0.479821 -1.801033 0
0.000000 0.000017 0
0.000000 0.944100 0
0.000000 0.000000 0
0.000000 1.755681 0
0.000000 -0.000002 0
0.278533 -2.672573 0
0.439498 -1.351296 0
0.557322 -0.725433 0
0.683958 -0.491685 0
0.848459 -0.244179 0
0.821084 -0.041026 0
0.817406 0.067135 0
0.775280 0.167052 0
0.615376 0.279055 0
0.725118 0.520377 0
0.741363 1.090800 0
0.830473 2.214042 0
0.839537 3.732044 0
0.690510 5.279826 0
0.394077 6.596888 0
0.000000 0.000008 0
0.000000 -3.582123 0
0.000000 0.000000 0
0.000000 -2.049116 0
0.000000 -0.000022 0
-0.030477 3.106734 0
-0.061167 1.642949 0
-0.082092 0.939134 0
-0.090804 0.656216 0
-0.126603 0.540551 0
-0.198334 0.422596 0
-0.283673 0.288965 0
-0.407261 0.072670 0
-0.420436 -0.235327 0
-0.343777 -0.545857 0
-0.240295 -0.829969 0
-0.134402 -1.052810 0
-0.018973 -1.695168 0
0.078713 -3.314396 0
0.157265 -5.710436 0
0.146542 -8.192012 0
0.000000 0.000087 0
0.000000 4.666121 0
0.000000 0.000000 0
0.000000 -0.126039 0
0.000000 -0.000249 0
-0.395849 0.338833 0
-0.363746 0.167304 0
0.002491 -0.003656 0
-0.214568 0.120532 0
-0.124528 0.119499 0
-0.263798 -0.101951 0
-0.312120 -0.010726 0
-0.486244 0.086126 0
-0.411168 0.059282 0
-0.388694 0.142949 0
-0.278044 -0.046623 0
-0.161123 -0.154767 0
-0.038683 -0.103041 0
0.005857 -0.058580 0
0.044302 -0.053389 0
0.002267 -0.019908 0
-0.162435 -0.012970 0
-0.013108 -0.017412 0
0.016994 0.003045 0
0.016830 0.000338 0
1.000000 -0.012212 0
0.998979 -0.045647 0
1.000472 -0.091680 0
1.000564 -0.139082 0
1.005228 -0.189372 0
1.011007 -0.250343 0
1.017649 -0.324099 0
1.023978 -0.414349 0
1.028295 -0.527776 0
1.031411 -0.670464 0
1.009596 -0.836938 0
0.975866 -1.039111 0
0.867149 -1.248586 0
0.663432 -1.431167 0
0.377768 -1.569470 0
0.000000 0.000023 0
0.000000 0.809993 0
0.000000 0.000000 0
0.000000 1.825482 0
0.000000 0.000001 0
0.178473 -2.777569 0
0.281272 -1.451014 0
0.417285 -0.842583 0
0.595293 -0.585637 0
0.764370 -0.286659 0
0.741850 -0.041182 0
0.535370 0.088199 0
0.519942 0.259695 0
0.434175 0.307634 0
0.448825 0.494556 0
0.524297 1.082362 0
0.599733 2.182220 0
0.622635 3.768176 0
0.516002 5.400371 0
0.298032 6.784181 0
0.000000 0.000030 0
0.000000 -3.690182 0
0.000000 0.000000 0
0.000000 -2.055004 0
0.000000 0.000008 0
-0.008325 3.119084 0
-0.017023 1.655746 0
-0.006609 0.930576 0
-0.027655 0.671459 0
-0.069448 0.578622 0
-0.057862 0.449291 0
-0.135104 0.337680 0
-0.213418 0.118000 0
-0.242232 -0.239343 0
-0.173512 -0.608279 0
-0.087765 -0.882559 0
-0.061305 -1.095622 0
0.018007 -1.753449 0
0.081793 -3.357620 0
0.124321 -5.722688 0
0.100645 -8.149539 0
0.000000 0.000072 0
0.000000 4.629547 0
0.000000 0.000000 0
0.000000 -0.219985 0
0.000000 0.001148 0
0.021152 0.493005 0
-0.103546 0.186629 0
0.060728 -0.143752 0
0.178516 -0.043604 0
0.191171 0.022799 0
0.147646 -0.012059 0
-0.118856 0.061258 0
0.077922 0.150362 0
-0.138856 0.179396 0
-0.183693 0.111286 0
-0.115778 -0.112759 0
-0.046137 -0.227104 0
0.013355 -0.153838 0
0.113008 -0.065414 0
-0.091317 -0.000374 0
-0.263721 0.109256 0
-0.185433 -0.023549 0
-0.046782 -0.132217 0
-0.030851 -0.023694 0
-0.030871 0.000450 0
1.000000 -0.011707 0
0.999020 -0.045981 0
0.999125 -0.091178 0
0.996288 -0.138566 0
0.996828 -0.191194 0
0.997710 -0.252430 0
0.998617 -0.325876 0
0.996383 -0.414860 0
0.993353 -0.527172 0
0.975325 -0.657703 0
0.941201 -0.814190 0
0.869091 -0.987500 0
0.753202 -1.142371 0
0.558028 -1.280774 0
0.310055 -1.376435 0
0.000000 0.000033 0
0.000000 0.702344 0
0.000000 0.000000 0
0.000000 1.869896 0
0.000000 -0.000009 0
0.114127 -2.852585 0
0.192249 -1.504135 0
0.283309 -0.926405 0
0.446392 -0.713818 0
0.594116 -0.337975 0
0.609275 0.105534 0
0.344933 0.209157 0
0.265354 0.231818 0
0.257034 0.324570 0
0.210226 0.462700 0
0.345176 0.994219 0
0.427929 2.151106 0
0.464342 3.785633 0
0.396621 5.487572 0
0.230003 6.927130 0
0.000000 0.000024 0
0.000000 -3.772848 0
0.000000 0.000000 0
0.000000 -2.054388 0
0.000000 0.000034 0
0.011304 3.117628 0
0.021494 1.641850 0
0.052005 0.945938 0
0.026421 0.696433 0
0.036423 0.559882 0
0.019449 0.464615 0
-0.026300 0.388521 0
-0.062741 0.141231 0
-0.058632 -0.260868 0
-0.025061 -0.644717 0
-0.000265 -0.901782 0
0.028636 -1.120505 0
0.063221 -1.786751 0
0.101748 -3.382438 0
0.119993 -5.722502 0
0.084925 -8.112447 0
0.000000 0.000057 0
0.000000 4.601678 0
0.000000 0.000000 0
0.000000 -0.111235 0
0.000000 0.001016 0
0.242647 0.405099 0
0.367036 0.141973 0
0.242100 -0.184177 0
0.259305 0.037047 0
0.191331 0.139254 0