# vtk DataFile Version 2.0
generated by CFD-lab course output (written by Tobias Neckel) 
ASCII

DATASET STRUCTURED_GRID
DIMENSIONS  81 26 1 
POINTS 2106 float

0.000000 0.000000 0
0.125000 0.000000 0
0.250000 0.000000 0
0.375000 0.000000 0
0.500000 0.000000 0
0.625000 0.000000 0
0.750000 0.000000 0
0.875000 0.000000 0
1.000000 0.000000 0
1.125000 0.000000 0
1.250000 0.000000 0
1.375000 0.000000 0
1.500000 0.000000 0
1.625000 0.000000 0
1.750000 0.000000 0
1.875000 0.000000 0
2.000000 0.000000 0
2.125000 0.000000 0
2.250000 0.000000 0
2.375000 0.000000 0
2.500000 0.000000 0
2.625000 0.000000 0
2.750000 0.000000 0
2.875000 0.000000 0
3.000000 0.000000 0
3.125000 0.000000 0
3.250000 0.000000 0
3.375000 0.000000 0
3.500000 0.000000 0
3.625000 0.000000 0
3.750000 0.000000 0
3.875000 0.000000 0
4.000000 0.000000 0
4.125000 0.000000 0
4.250000 0.000000 0
4.375000 0.000000 0
4.500000 0.000000 0
4.625000 0.000000 0
4.750000 0.000000 0
4.875000 0.000000 0
5.000000 0.000000 0
5.125000 0.000000 0
5.250000 0.000000 0
5.375000 0.000000 0
5.500000 0.000000 0
5.625000 0.000000 0
5.750000 0.000000 0
5.875000 0.000000 0
6.000000 0.000000 0
6.125000 0.000000 0
6.250000 0.000000 0
6.375000 0.000000 0
6.500000 0.000000 0
6.625000 0.000000 0
6.750000 0.000000 0
6.875000 0.000000 0
7.000000 0.000000 0
7.125000 0.000000 0
7.250000 0.000000 0
7.375000 0.000000 0
7.500000 0.000000 0
7.625000 0.000000 0
7.750000 0.000000 0
7.875000 0.000000 0
8.000000 0.000000 0
8.125000 0.000000 0
8.250000 0.000000 0
8.375000 0.000000 0
8.500000 0.000000 0
8.625000 0.000000 0
8.750000 0.000000 0
8.875000 0.000000 0
9.000000 0.000000 0
9.125000 0.000000 0
9.250000 0.000000 0
9.375000 0.000000 0
9.500000 0.000000 0
9.625000 0.000000 0
9.750000 0.000000 0
9.875000 0.000000 0
10.000000 0.000000 0
0.000000 0.080000 0
0.125000 0.080000 0
0.250000 0.080000 0
0.375000 0.080000 0
0.500000 0.080000 0
0.625000 0.080000 0
0.750000 0.080000 0
0.875000 0.080000 0
1.000000 0.080000 0
1.125000 0.080000 0
1.250000 0.080000 0
1.375000 0.080000 0
1.500000 0.080000 0
1.625000 0.080000 0
1.750000 0.080000 0
1.875000 0.080000 0
2.000000 0.080000 0
2.125000 0.080000 0
2.250000 0.080000 0
2.375000 0.080000 0
2.500000 0.080000 0
2.625000 0.080000 0
2.750000 0.080000 0
2.875000 0.080000 0
3.000000 0.080000 0
3.125000 0.080000 0
3.250000 0.080000 0
3.375000 0.080000 0
3.500000 0.080000 0
3.625000 0.080000 0
3.750000 0.080000 0
3.875000 0.080000 0
4.000000 0.080000 0
4.125000 0.080000 0
4.250000 0.080000 0
4.375000 0.080000 0
4.500000 0.080000 0
4.625000 0.080000 0
4.750000 0.080000 0
4.875000 0.080000 0
5.000000 0.080000 0
5.125000 0.080000 0
5.250000 0.080000 0
5.375000 0.080000 0
5.500000 0.080000 0
5.625000 0.080000 0
5.750000 0.080000 0
5.875000 0.080000 0
6.000000 0.080000 0
6.125000 0.080000 0
6.250000 0.080000 0
6.375000 0.080000 0
6.500000 0.080000 0
6.625000 0.080000 0
6.750000 0.080000 0
6.875000 0.080000 0
7.000000 0.080000 0
7.125000 0.080000 0
7.250000 0.080000 0
7.375000 0.080000 0
7.500000 0.080000 0
7.625000 0.080000 0
7.750000 0.080000 0
7.875000 0.080000 0
8.000000 0.080000 0
8.125000 0.080000 0
8.250000 0.080000 0
8.375000 0.080000 0
8.500000 0.080000 0
8.625000 0.080000 0
8.750000 0.080000 0
8.875000 0.080000 0
9.000000 0.080000 0
9.125000 0.080000 0
9.250000 0.080000 0
9.375000 0.080000 0
9.500000 0.080000 0
9.625000 0.080000 0
9.750000 0.080000 0
9.875000 0.080000 0
10.000000 0.080000 0
0.000000 0.160000 0
0.125000 0.160000 0
0.250000 0.160000 0
0.375000 0.160000 0
0.500000 0.160000 0
0.625000 0.160000 0
0.750000 0.160000 0
0.875000 0.160000 0
1.000000 0.160000 0
1.125000 0.160000 0
1.250000 0.160000 0
1.375000 0.160000 0
1.500000 0.160000 0
1.625000 0.160000 0
1.750000 0.160000 0
1.875000 0.160000 0
2.000000 0.160000 0
2.125000 0.160000 0
2.250000 0.160000 0
2.375000 0.160000 0
2.500000 0.160000 0
2.625000 0.160000 0
2.750000 0.160000 0
2.875000 0.160000 0
3.000000 0.160000 0
3.125000 0.160000 0
3.250000 0.160000 0
3.375000 0.160000 0
3.500000 0.160000 0
3.625000 0.160000 0
3.750000 0.160000 0
3.875000 0.160000 0
4.000000 0.160000 0
4.125000 0.160000 0
4.250000 0.160000 0
4.375000 0.160000 0
4.500000 0.160000 0
4.625000 0.160000 0
4.750000 0.160000 0
4.875000 0.160000 0
5.000000 0.160000 0
5.125000 0.160000 0
5.250000 0.160000 0
5.375000 0.160000 0
5.500000 0.160000 0
5.625000 0.160000 0
5.750000 0.160000 0
5.875000 0.160000 0
6.000000 0.160000 0
6.125000 0.160000 0
6.250000 0.160000 0
6.375000 0.160000 0
6.500000 0.160000 0
6.625000 0.160000 0
6.750000 0.160000 0
6.875000 0.160000 0
7.000000 0.160000 0
7.125000 0.160000 0
7.250000 0.160000 0
7.375000 0.160000 0
7.500000 0.160000 0
7.625000 0.160000 0
7.750000 0.160000 0
7.875000 0.160000 0
8.000000 0.160000 0
8.125000 0.160000 0
8.250000 0.160000 0
8.375000 0.160000 0
8.500000 0.160000 0
8.625000 0.160000 0
8.750000 0.160000 0
8.875000 0.160000 0
9.000000 0.160000 0
9.125000 0.160000 0
9.250000 0.160000 0
9.375000 0.160000 0
9.500000 0.160000 0
9.625000 0.160000 0
9.750000 0.160000 0
9.875000 0.160000 0
10.000000 0.160000 0
0.000000 0.240000 0
0.125000 0.240000 0
0.250000 0.240000 0
0.375000 0.240000 0
0.500000 0.240000 0
0.625000 0.240000 0
0.750000 0.240000 0
0.875000 0.240000 0
1.000000 0.240000 0
1.125000 0.240000 0
1.250000 0.240000 0
1.375000 0.240000 0
1.500000 0.240000 0
1.625000 0.240000 0
1.750000 0.240000 0
1.875000 0.240000 0
2.000000 0.240000 0
2.125000 0.240000 0
2.250000 0.240000 0
2.375000 0.240000 0
2.500000 0.240000 0
2.625000 0.240000 0
2.750000 0.240000 0
2.875000 0.240000 0
3.000000 0.240000 0
3.125000 0.240000 0
3.250000 0.240000 0
3.375000 0.240000 0
3.500000 0.240000 0
3.625000 0.240000 0
3.750000 0.240000 0
3.875000 0.240000 0
4.000000 0.240000 0
4.125000 0.240000 0
4.250000 0.240000 0
4.375000 0.240000 0
4.500000 0.240000 0
4.625000 0.240000 0
4.750000 0.240000 0
4.875000 0.240000 0
5.000000 0.240000 0
5.125000 0.240000 0
5.250000 0.240000 0
5.375000 0.240000 0
5.500000 0.240000 0
5.625000 0.240000 0
5.750000 0.240000 0
5.875000 0.240000 0
6.000000 0.240000 0
6.125000 0.240000 0
6.250000 0.240000 0
6.375000 0.240000 0
6.500000 0.240000 0
6.625000 0.240000 0
6.750000 0.240000 0
6.875000 0.240000 0
7.000000 0.240000 0
7.125000 0.240000 0
7.250000 0.240000 0
7.375000 0.240000 0
7.500000 0.240000 0
7.625000 0.240000 0
7.750000 0.240000 0
7.875000 0.240000 0
8.000000 0.240000 0
8.125000 0.240000 0
8.250000 0.240000 0
8.375000 0.240000 0
8.500000 0.240000 0
8.625000 0.240000 0
8.750000 0.240000 0
8.875000 0.240000 0
9.000000 0.240000 0
9.125000 0.240000 0
9.250000 0.240000 0
9.375000 0.240000 0
9.500000 0.240000 0
9.625000 0.240000 0
9.750000 0.240000 0
9.875000 0.240000 0
10.000000 0.240000 0
0.000000 0.320000 0
0.125000 0.320000 0
0.250000 0.320000 0
0.375000 0.320000 0
0.500000 0.320000 0
0.625000 0.320000 0
0.750000 0.320000 0
0.875000 0.320000 0
1.000000 0.320000 0
1.125000 0.320000 0
1.250000 0.320000 0
1.375000 0.320000 0
1.500000 0.320000 0
1.625000 0.320000 0
1.750000 0.320000 0
1.875000 0.320000 0
2.000000 0.320000 0
2.125000 0.320000 0
2.250000 0.320000 0
2.375000 0.320000 0
2.500000 0.320000 0
2.625000 0.320000 0
2.750000 0.320000 0
2.875000 0.320000 0
3.000000 0.320000 0
3.125000 0.320000 0
3.250000 0.320000 0
3.375000 0.320000 0
3.500000 0.320000 0
3.625000 0.320000 0
3.750000 0.320000 0
3.875000 0.320000 0
4.000000 0.320000 0
4.125000 0.320000 0
4.250000 0.320000 0
4.375000 0.320000 0
4.500000 0.320000 0
4.625000 0.320000 0
4.750000 0.320000 0
4.875000 0.320000 0
5.000000 0.320000 0
5.125000 0.320000 0
5.250000 0.320000 0
5.375000 0.320000 0
5.500000 0.320000 0
5.625000 0.320000 0
5.750000 0.320000 0
5.875000 0.320000 0
6.000000 0.320000 0
6.125000 0.320000 0
6.250000 0.320000 0
6.375000 0.320000 0
6.500000 0.320000 0
6.625000 0.320000 0
6.750000 0.320000 0
6.875000 0.320000 0
7.000000 0.320000 0
7.125000 0.320000 0
7.250000 0.320000 0
7.375000 0.320000 0
7.500000 0.320000 0
7.625000 0.320000 0
7.750000 0.320000 0
7.875000 0.320000 0
8.000000 0.320000 0
8.125000 0.320000 0
8.250000 0.320000 0
8.375000 0.320000 0
8.500000 0.320000 0
8.625000 0.320000 0
8.750000 0.320000 0
8.875000 0.320000 0
9.000000 0.320000 0
9.125000 0.320000 0
9.250000 0.320000 0
9.375000 0.320000 0
9.500000 0.320000 0
9.625000 0.320000 0
9.750000 0.320000 0
9.875000 0.320000 0
10.000000 0.320000 0
0.000000 0.400000 0
0.125000 0.400000 0
0.250000 0.400000 0
0.375000 0.400000 0
0.500000 0.400000 0
0.625000 0.400000 0
0.750000 0.400000 0
0.875000 0.400000 0
1.000000 0.400000 0
1.125000 0.400000 0
1.250000 0.400000 0
1.375000 0.400000 0
1.500000 0.400000 0
1.625000 0.400000 0
1.750000 0.400000 0
1.875000 0.400000 0
2.000000 0.400000 0
2.125000 0.400000 0
2.250000 0.400000 0
2.375000 0.400000 0
2.500000 0.400000 0
2.625000 0.400000 0
2.750000 0.400000 0
2.875000 0.400000 0
3.000000 0.400000 0
3.125000 0.400000 0
3.250000 0.400000 0
3.375000 0.400000 0
3.500000 0.400000 0
3.625000 0.400000 0
3.750000 0.400000 0
3.875000 0.400000 0
4.000000 0.400000 0
4.125000 0.400000 0
4.250000 0.400000 0
4.375000 0.400000 0
4.500000 0.400000 0
4.625000 0.400000 0
4.750000 0.400000 0
4.875000 0.400000 0
5.000000 0.400000 0
5.125000 0.400000 0
5.250000 0.400000 0
5.375000 0.400000 0
5.500000 0.400000 0
5.625000 0.400000 0
5.750000 0.400000 0
5.875000 0.400000 0
6.000000 0.400000 0
6.125000 0.400000 0
6.250000 0.400000 0
6.375000 0.400000 0
6.500000 0.400000 0
6.625000 0.400000 0
6.750000 0.400000 0
6.875000 0.400000 0
7.000000 0.400000 0
7.125000 0.400000 0
7.250000 0.400000 0
7.375000 0.400000 0
7.500000 0.400000 0
7.625000 0.400000 0
7.750000 0.400000 0
7.875000 0.400000 0
8.000000 0.400000 0
8.125000 0.400000 0
8.250000 0.400000 0
8.375000 0.400000 0
8.500000 0.400000 0
8.625000 0.400000 0
8.750000 0.400000 0
8.875000 0.400000 0
9.000000 0.400000 0
9.125000 0.400000 0
9.250000 0.400000 0
9.375000 0.400000 0
9.500000 0.400000 0
9.625000 0.400000 0
9.750000 0.400000 0
9.875000 0.400000 0
10.000000 0.400000 0
0.000000 0.480000 0
0.125000 0.480000 0
0.250000 0.480000 0
0.375000 0.480000 0
0.500000 0.480000 0
[...]
POINT_DATA 2106 

VECTORS velocity float
0.500000 0.000000 0
-0.000008 0.000000 0
-0.000013 0.000000 0
-0.000017 0.000000 0
-0.000019 0.000000 0
-0.000020 0.000000 0
-0.000021 0.000000 0
-0.000022 0.000000 0
-0.000023 0.000000 0
0.000003 0.000000 0
-0.000005 0.000000 0
-0.000029 0.000000 0
-0.000041 0.000000 0
-0.000034 0.000000 0
-0.000033 0.000000 0
-0.000229 0.000000 0
-0.000623 0.000000 0
-0.000077 0.000000 0
0.000299 0.000000 0
0.000102 0.000000 0
-0.000059 0.000000 0
0.000021 0.000000 0
0.000152 0.000000 0
0.000166 0.000000 0
0.000046 0.000000 0
-0.000164 0.000000 0
-0.000379 0.000000 0
-0.000566 0.000000 0
-0.000631 0.000000 0
-0.000553 0.000000 0
-0.000341 0.000000 0
-0.000059 0.000000 0
0.000073 0.000000 0
0.000234 0.000000 0
0.000188 0.000000 0
0.000000 0.000000 0
0.000000 0.000000 0
0.000000 0.000000 0
0.000000 0.000000 0
0.000000 0.000000 0
-0.012269 0.000000 0
-0.023375 0.000000 0
-0.023796 0.000000 0
-0.020010 0.000000 0
-0.014331 0.000000 0
-0.010017 0.000000 0
-0.006068 0.000000 0
-0.003724 0.000000 0
-0.001709 0.000000 0
-0.000121 0.000000 0
0.001057 0.000000 0
0.001722 0.000000 0
0.001534 0.000000 0
-0.000106 0.000000 0
-0.002176 0.000000 0
-0.004201 0.000000 0
-0.001957 0.000000 0
-0.000778 0.000000 0
-0.000692 0.000000 0
0.000847 0.000000 0
0.003740 0.000000 0
0.005897 0.000000 0
0.007196 0.000000 0
0.008044 0.000000 0
0.008381 0.000000 0
0.008259 0.000000 0
0.007618 0.000000 0
0.006390 0.000000 0
0.004580 0.000000 0
0.002325 0.000000 0
-0.000119 0.000000 0
-0.002396 0.000000 0
-0.004067 0.000000 0
-0.004518 0.000000 0
-0.003571 0.000000 0
-0.001394 0.000000 0
0.001617 0.000000 0
0.004718 0.000000 0
0.007707 0.000000 0
0.010058 0.000000 0
0.010884 0.000000 0
1.000000 -0.001806 0
1.007274 -0.006195 0
1.022700 -0.011852 0
1.047582 -0.018564 0
1.083574 -0.026602 0
1.132960 -0.036427 0
1.198885 -0.048854 0
1.285960 -0.064027 0
1.399115 -0.085585 0
1.550895 -0.116025 0
1.758073 -0.168106 0
2.065647 -0.237242 0
2.486923 -0.336702 0
3.104356 -0.452898 0
3.921477 -0.659435 0
5.265553 -0.696495 0
6.140507 -0.454173 0
6.613720 -0.252153 0
6.855423 -0.132301 0
6.978698 -0.068062 0
7.044091 -0.034399 0
7.078596 -0.016995 0
7.095207 -0.006346 0
7.100292 0.001628 0
7.094961 0.010527 0
7.076013 0.025053 0
7.034017 0.049965 0
6.945212 0.098287 0
6.767328 0.182906 0
6.429254 0.297922 0
5.912436 0.438871 0
5.117102 0.602434 0
4.072618 0.743402 0
2.834720 0.930569 0
1.351172 0.861741 0
0.000000 0.000117 0
0.000000 -0.330322 0
0.000000 0.000000 0
0.000000 -0.270896 0
0.000000 0.007853 0
-0.806821 0.616756 0
-1.698010 0.673450 0
-2.625079 0.613487 0
-3.419282 0.493667 0
-3.971935 0.364033 0
-4.367466 0.246184 0
-4.654235 0.158015 0
-4.803604 0.081314 0
-4.840889 0.003623 0
-4.755115 -0.072277 0
-4.534895 -0.150542 0
-4.193545 -0.248355 0
-3.681719 -0.373398 0
-2.899706 -0.636766 0
-1.583230 -1.258387 0
1.237538 -2.774516 0
6.105277 -2.892511 0
8.573296 -1.383704 0
9.690598 -0.575894 0
10.072845 -0.192293 0
10.156819 -0.042929 0
10.165494 0.007639 0
10.140544 0.028665 0
10.099503 0.039507 0
10.048082 0.045343 0
9.990236 0.047350 0
9.931428 0.045053 0
9.878710 0.037940 0
9.839524 0.026270 0
9.819979 0.011138 0
9.823901 -0.005908 0
9.853251 -0.022903 0
9.907944 -0.036597 0
9.981449 -0.043126 0
10.061556 -0.040363 0
10.134301 -0.028590 0
10.186791 -0.010198 0
10.211166 0.010609 0
10.206833 0.029266 0
10.175726 0.025244 0
10.164397 0.013481 0
1.000000 -0.004590 0
1.008357 -0.014420 0
1.024885 -0.025712 0
1.050547 -0.038874 0
1.086784 -0.054556 0
1.135661 -0.073714 0
1.200202 -0.097835 0
1.284231 -0.128062 0
1.396264 -0.169474 0
1.538162 -0.229648 0
1.740733 -0.329356 0
2.020187 -0.466379 0
2.429313 -0.664689 0
3.015829 -0.918030 0
3.862283 -1.383082 0
5.368512 -1.420094 0
6.028508 -0.862742 0
6.359107 -0.457462 0
6.509320 -0.233501 0
6.578474 -0.120663 0
6.618295 -0.063850 0
6.641914 -0.032629 0
6.655171 -0.013801 0
6.661838 0.000242 0
6.661868 0.015623 0
6.654594 0.039089 0
6.637417 0.083798 0
6.591810 0.170765 0
6.493977 0.330298 0
6.265834 0.547216 0
5.804229 0.839862 0
5.114441 1.177569 0
4.141702 1.460809 0
2.933950 1.741810 0
1.643542 1.814306 0
0.000000 0.000162 0
0.000000 -0.864630 0
0.000000 0.000000 0
0.000000 -0.505662 0
0.000000 0.010773 0
-0.635807 1.086841 0
-1.280292 1.163774 0
-1.904842 1.101703 0
-2.491755 0.862077 0
-2.981418 0.606927 0
-3.367105 0.436762 0
-3.598918 0.279218 0
-3.730666 0.119548 0
-3.750702 -0.030944 0
-3.630405 -0.195746 0
-3.354431 -0.359315 0
-2.928037 -0.545943 0
-2.357428 -0.827966 0
-1.566728 -1.342942 0
-0.017503 -2.647745 0
2.491571 -4.920553 0
5.844422 -4.694794 0
7.188019 -2.294513 0
7.752045 -0.959618 0
7.827221 -0.298288 0
7.790569 -0.059202 0
7.817402 0.010510 0
7.829273 0.042329 0
7.832351 0.059270 0
7.825840 0.070025 0
7.809448 0.074753 0
7.785482 0.071472 0
7.758432 0.058913 0
7.734559 0.037683 0
7.720170 0.010094 0
7.720168 -0.021199 0
7.739794 -0.053692 0
7.788010 -0.081952 0
7.864657 -0.098217 0
7.961592 -0.097730 0
8.067788 -0.080055 0
8.169235 -0.049098 0
8.255027 -0.012732 0
8.317614 0.022777 0
8.351878 0.027255 0
8.360132 0.015572 0
1.000000 -0.007117 0
1.007519 -0.022070 0
1.022909 -0.038825 0
1.047032 -0.058151 0
1.081107 -0.081047 0
1.126937 -0.108986 0
1.187224 -0.143911 0
1.265568 -0.189478 0
1.370037 -0.248072 0
1.500414 -0.336457 0
1.684702 -0.476574 0
1.937553 -0.677905 0
2.296113 -0.973884 0
2.817757 -1.369970 0
3.635038 -2.165123 0
5.231873 -2.082851 0
5.412048 -1.088126 0
5.419982 -0.559844 0
5.416578 -0.272668 0
5.403761 -0.137778 0
5.393336 -0.074972 0
5.390870 -0.040568 0
5.392668 -0.019069 0
5.399265 -0.002630 0
5.404556 0.015191 0
5.410214 0.040730 0
5.424653 0.090174 0
5.448549 0.190117 0
5.482072 0.391559 0
5.503063 0.739388 0
5.216033 1.175790 0
4.677590 1.666480 0
3.867566 2.138945 0
2.754596 2.529420 0
1.551522 2.739497 0
0.000000 0.000240 0
0.000000 -1.382080 0
0.000000 0.000000 0
0.000000 -0.673686 0
0.000000 0.012019 0
-0.452021 1.436197 0
-0.915177 1.485662 0
-1.319732 1.388854 0
-1.727826 1.182705 0
-2.204541 0.924287 0
-2.629729 0.641414 0
-2.874251 0.390724 0
-3.040878 0.178486 0
-3.053361 -0.060514 0
-2.914311 -0.325860 0
-2.629223 -0.600028 0
-2.180782 -0.886406 0
-1.626297 -1.244605 0
-0.817610 -2.134288 0
0.668969 -3.855668 0
2.492148 -6.526117 0
5.140044 -5.898207 0
4.891682 -2.604553 0
4.823580 -0.984952 0
4.427180 -0.216917 0
4.007698 -0.036613 0
4.139584 -0.017100 0
4.221295 0.019129 0
4.298855 0.041736 0
4.360288 0.060032 0
4.401579 0.073210 0
4.428739 0.077735 0
4.450925 0.070563 0
4.477468 0.050789 0
4.514464 0.020379 0
4.565269 -0.018435 0
4.631423 -0.066290 0
4.722417 -0.116478 0
4.840825 -0.154187 0
4.988031 -0.170335 0
5.157414 -0.161449 0
5.334331 -0.129999 0
5.497558 -0.084322 0
5.636859 -0.032686 0
5.748726 -0.001936 0
5.773180 0.003653 0
1.000000 -0.009364 0
1.006491 -0.029030 0
1.020433 -0.050973 0
1.042587 -0.076093 0
1.073876 -0.105667 0
1.115774 -0.141601 0
1.170429 -0.186531 0
1.241304 -0.245034 0
1.332751 -0.319747 0
1.452159 -0.431006 0
1.608817 -0.609097 0
1.820166 -0.857654 0
2.095791 -1.227991 0
2.480342 -1.774914 0
3.108955 -2.928088 0
4.383181 -2.557352 0
3.663910 -0.983103 0
3.075161 -0.460333 0
2.789197 -0.223092 0
2.648281 -0.105760 0
2.528897 -0.055572 0
2.469112 -0.032174 0
2.504802 -0.019145 0
2.609337 -0.007338 0
2.724370 0.008644 0
2.808799 0.026254 0
2.905959 0.059291 0
3.041208 0.134045 0
3.278085 0.295437 0
3.657823 0.717509 0
3.903129 1.368193 0
3.763343 2.040616 0
3.250996 2.691553 0
2.419732 3.224106 0
1.341171 3.577275 0
0.000000 0.000328 0
0.000000 -1.857452 0
0.000000 0.000000 0
0.000000 -0.794083 0
0.000000 0.011685 0
-0.315016 1.672608 0
-0.613797 1.719139 0
-0.929419 1.621829 0
-1.272595 1.428385 0
-1.623520 1.184175 0
-1.981157 0.865406 0
-2.310328 0.542383 0
-2.461185 0.234208 0
-2.465287 -0.111916 0
-2.322894 -0.467164 0
-2.023947 -0.828744 0
-1.639306 -1.187785 0
-1.094890 -1.700366 0
-0.282241 -2.811882 0
0.758747 -4.765960 0
2.104466 -7.782010 0
3.840658 -6.230465 0
1.581156 -2.091946 0
0.355726 -0.662306 0
0.042217 0.223908 0
0.052028 0.124890 0
0.890711 -0.126161 0
0.746073 -0.059573 0
0.984494 -0.029653 0
1.100323 0.004313 0
1.208603 0.030976 0
1.315801 0.039921 0
1.422455 0.027758 0
1.533005 -0.002950 0
1.650550 -0.046067 0
1.777580 -0.096021 0
1.908950 -0.154235 0
2.033663 -0.215937 0
2.173346 -0.268178 0
2.331904 -0.300315 0
2.513976 -0.301655 0
2.709749 -0.266759 0
2.898691 -0.206318 0
3.057191 -0.137939 0
3.176713 -0.059959 0
3.199372 -0.015255 0
1.000000 -0.011234 0
1.004977 -0.035095 0
1.017144 -0.061898 0
1.036924 -0.092327 0
1.064792 -0.127858 0
1.101810 -0.170751 0
1.149506 -0.224223 0
1.210438 -0.293336 0
1.287398 -0.382991 0
1.392610 -0.513111 0
1.518069 -0.712070 0
1.653607 -0.989540 0
1.848211 -1.396369 0
2.058412 -2.018368 0
2.313701 -3.382912 0
2.007831 -2.437993 0
-0.006754 -0.250965 0
0.001419 0.000000 0
-0.000061 0.000564 0
0.353830 0.028841 0
0.384397 0.039724 0
0.437706 -0.025119 0
0.549540 -0.108785 0
0.712115 -0.143125 0
0.920151 -0.112437 0
1.058486 -0.075459 0
1.192413 -0.058539 0
1.332292 -0.048015 0
1.512842 -0.003047 0
1.814869 0.339388 0
2.462090 1.108285 0
2.714046 2.083873 0
2.512693 2.998885 0
1.960292 3.751735 0
1.089779 4.288154 0
0.000000 0.000362 0
0.000000 -2.240321 0
0.000000 0.000000 0
0.000000 -0.876629 0
0.000000 0.010725 0
-0.206220 1.829081 0
-0.392216 1.878910 0
-0.612635 1.810514 0
-0.888653 1.626959 0
-1.173946 1.377797 0
-1.441519 1.081001 0
-1.723505 0.697972 0
-1.867281 0.277689 0
-1.877694 -0.148991 0
-1.790565 -0.608289 0
-1.549259 -1.037494 0
-1.193891 -1.480972 0
-0.670326 -2.113096 0
-0.040469 -3.320586 0
0.658524 -5.383131 0
1.438617 -8.498510 0
1.740474 -5.563258 0
-0.000265 -0.374166 0
-0.000355 0.000000 0
0.001901 -0.022519 0
-0.797933 -0.579617 0
-0.616138 -0.461257 0
-0.262138 -0.040861 0
-0.160036 -0.184952 0
-0.034706 -0.083366 0
0.094656 -0.064664 0
0.231432 -0.059099 0
0.374531 -0.068416 0
0.511505 -0.095160 0
0.645265 -0.136117 0
0.775419 -0.183779 0
0.896277 -0.230151 0
0.997224 -0.285660 0
1.084630 -0.345029 0
1.171580 -0.388306 0
1.264349 -0.403238 0
1.373200 -0.376185 0
1.505341 -0.306654 0
1.610596 -0.210589 0
1.685421 -0.092900 0
1.698123 -0.025411 0
1.000000 -0.012512 0
1.002422 -0.039951 0
1.012641 -0.071391 0
1.029885 -0.106559 0
1.053896 -0.147166 0
1.085334 -0.195789 0
1.125076 -0.256024 0
1.174517 -0.333257 0
1.235919 -0.436309 0
1.316497 -0.578607 0
1.409756 -0.776107 0
1.499364 -1.068916 0
1.599763 -1.487038 0
1.637527 -2.072799 0
1.453868 -2.895687 0
0.160618 0.000287 0
-1.191071 1.686642 0
-0.701850 0.000000 0
-0.465130 0.053828 0
0.000000 -0.000603 0
0.245542 -0.108982 0
0.480726 -0.137837 0
0.656573 -0.194739 0
0.745738 -0.244500 0
0.893891 -0.213005 0
1.027732 -0.147965 0
1.130507 -0.115916 0
1.194485 -0.071001 0
1.190141 -0.013384 0
1.155258 0.110019 0
1.510819 0.792748 0
1.903396 2.008258 0
1.896316 3.173984 0
1.502664 4.134799 0
0.868566 4.831890 0
0.000000 0.000385 0
0.000000 -2.554868 0
0.000000 0.000000 0
0.000000 -0.928292 0
0.000000 0.009495 0
-0.116767 1.923680 0
-0.214454 1.979275 0
-0.345161 1.939578 0
-0.528965 1.787653 0
-0.766399 1.538039 0
-0.970959 1.217154 0
-1.164839 0.814900 0
-1.324404 0.332919 0
-1.368838 -0.160984 0
-1.357508 -0.677332 0
-1.154796 -1.210585 0
-0.763746 -1.750273 0
-0.389398 -2.438526 0
0.063875 -3.662316 0
0.484510 -5.712545 0
0.813234 -8.474428 0
0.239466 0.003533 0
0.133643 5.006652 0
1.182644 0.000000 0
1.170638 0.216248 0
0.000000 0.000807 0
-0.406500 -0.478249 0
-0.089709 -0.351446 0
-0.115414 -0.175178 0
-0.028469 -0.158658 0
0.064020 -0.139321 0
0.160287 -0.139167 0
0.266581 -0.151457 0
0.367724 -0.176189 0
0.469267 -0.214940 0
0.564500 -0.256637 0
0.649065 -0.296158 0
0.726183 -0.336451 0
0.772727 -0.379734 0
0.803909 -0.415303 0
0.840291 -0.430660 0
0.875660 -0.420962 0
0.956418 -0.358219 0
1.009100 -0.253159 0
1.033235 -0.115945 0
1.041392 -0.031846 0
1.000000 -0.012747 0
1.000937 -0.043134 0
1.008564 -0.079447 0
1.022846 -0.118701 0
1.042548 -0.163317 0
1.067700 -0.216278 0
1.098640 -0.281272 0
1.135787 -0.364247 0
1.180287 -0.473830 0
1.233403 -0.624339 0
1.295311 -0.829077 0
1.352204 -1.111116 0
1.366988 -1.484765 0
1.260449 -1.924967 0
0.890081 -2.437662 0
0.000000 0.000272 0
0.000000 1.359605 0
0.000000 0.000000 0
0.000000 0.128155 0
0.000000 -0.000446 0
0.216224 -0.267658 0
0.456945 -0.288151 0
0.661691 -0.278365 0
0.795453 -0.294981 0
0.889918 -0.292884 0
1.017590 -0.226865 0
1.111429 -0.165233 0
1.160755 -0.086152 0
1.147793 0.022087 0
1.036387 0.134183 0
0.989138 0.629505 0
1.344622 1.837183 0
1.379364 3.255382 0
1.153938 4.409523 0
0.663310 5.249887 0
0.000000 0.000429 0
0.000000 -2.796151 0
0.000000 0.000000 0
0.000000 -0.953975 0
0.000000 0.008149 0
-0.041695 1.966385 0
-0.065502 2.025112 0
-0.109846 2.011831 0
-0.209619 1.896582 0
-0.363523 1.660702 0
-0.523613 1.336033 0
-0.676912 0.924207 0
-0.843987 0.408278 0
-0.951530 -0.127775 0
-0.946703 -0.745246 0
-0.731618 -1.417472 0
-0.409179 -1.970797 0
-0.149762 -2.642744 0
0.130150 -3.879857 0
0.357757 -5.862691 0
0.441163 -8.341652 0
0.000000 0.004250 0
0.000000 4.826116 0
0.000000 0.000000 0
0.000000 0.304991 0
0.000000 -0.001130 0
-0.056934 -0.413009 0
-0.172113 -0.227124 0
-0.113500 -0.224114 0
-0.067589 -0.198172 0
-0.013186 -0.185436 0
0.045709 -0.188706 0
0.103409 -0.201144 0
0.158760 -0.224847 0
0.207599 -0.262022 0
0.248509 -0.298819 0
0.279029 -0.333597 0
0.301397 -0.364772 0
0.313728 -0.394742 0
0.307252 -0.431515 0
0.312510 -0.449127 0
0.309015 -0.450474 0
0.315182 -0.392024 0
0.378261 -0.259720 0
0.270964 -0.113535 0
0.276889 -0.036011 0
1.000000 -0.013074 0
0.999973 -0.045380 0
1.004685 -0.085385 0
1.015501 -0.128281 0
1.030687 -0.175844 0
1.049444 -0.231659 0
1.071452 -0.299571 0
1.096431 -0.385483 0
1.124133 -0.498755 0
1.156234 -0.652194 0
1.188588 -0.852111 0
1.197029 -1.114762 0
1.163123 -1.428287 0
1.000097 -1.767550 0
0.650251 -2.088972 0
0.000000 0.000268 0
0.000000 1.116957 0
0.000000 0.000000 0
0.000000 0.192103 0
0.000000 -0.000673 0
0.222121 -0.401376 0
0.438605 -0.422908 0
0.605986 -0.411356 0
0.810889 -0.390537 0
0.899999 -0.355145 0
1.029787 -0.289704 0
1.122441 -0.207514 0
1.161055 -0.094245 0
1.129519 0.066240 0
1.014760 0.211586 0
0.841850 0.595506 0
0.971890 1.758542 0
1.004897 3.296051 0
0.869523 4.593102 0
0.499720 5.570439 0
0.000000 0.000640 0
0.000000 -2.979145 0
0.000000 0.000000 0
0.000000 -0.957550 0
0.000000 0.006961 0
0.020924 1.965655 0
0.056577 2.022922 0
0.079203 2.031843 0
0.064582 1.950036 0
0.002130 1.739025 0
-0.102579 1.417753 0
-0.201285 1.019970 0
-0.318717 0.508704 0
-0.435649 -0.095216 0
-0.431730 -0.818046 0
-0.306849 -1.554570 0
-0.146033 -2.122631 0
0.056808 -2.783667 0
0.200351 -3.987098 0
0.280794 -5.911563 0
0.262183 -8.245434 0
0.000000 0.004978 0
0.000000 4.725737 0
0.000000 0.000000 0
0.000000 0.179296 0
0.000000 0.000334 0
-0.209456 -0.368039 0
-0.163195 -0.315212 0
-0.156208 -0.242042 0
-0.131658 -0.222828 0
-0.102145 -0.211800 0
-0.071188 -0.213755 0
-0.051561 -0.223778 0
-0.036248 -0.242839 0
-0.041613 -0.272348 0
-0.054533 -0.302321 0
-0.074212 -0.329975 0
-0.097433 -0.358627 0
-0.119752 -0.383450 0
-0.164720 -0.414491 0
-0.227759 -0.431757 0
-0.314503 -0.422641 0
-0.433388 -0.402505 0
-0.463203 -0.224828 0
-0.486158 -0.051035 0
-0.484198 -0.039593 0
1.000000 -0.012692 0
0.998730 -0.046081 0
1.001473 -0.089356 0
1.007862 -0.135314 0
1.017510 -0.185012 0
1.029778 -0.242340 0
1.043296 -0.311316 0
1.057328 -0.397935 0
1.070828 -0.512076 0
1.085874 -0.665562 0
1.094723 -0.855158 0
1.072708 -1.094790 0
0.999436 -1.358700 0
0.820183 -1.596700 0
0.481012 -1.797572 0
0.000000 0.000203 0
0.000000 0.943361 0
0.000000 0.000000 0
0.000000 0.269904 0
0.000000 -0.000818 0
0.225164 -0.548315 0
0.446780 -0.533796 0
0.630475 -0.516598 0
0.789627 -0.483121 0
0.940177 -0.432951 0
1.057912 -0.369200 0
1.139700 -0.249217 0
1.167229 -0.090654 0
1.122492 0.115744 0
1.013833 0.318319 0
0.787429 0.656970 0
0.721834 1.732862 0
0.754730 3.320925 0
0.649009 4.732865 0
0.376371 5.806410 0
0.000000 0.000297 0
0.000000 -3.116118 0
0.000000 0.000000 0
0.000000 -0.942883 0
0.000000 0.005889 0
0.072767 1.930230 0
0.159426 1.987843 0
0.234767 2.006738 0
0.292862 1.945937 0
0.311986 1.767715 0
0.278830 1.466248 0
0.233395 1.062565 0
0.209242 0.558301 0
0.129363 -0.055417 0
0.120184 -0.827648 0
0.121583 -1.600289 0
0.139456 -2.203508 0
0.239007 -2.864400 0
0.278092 -4.023178 0
0.262226 -5.902233 0
0.187823 -8.161913 0
0.000000 0.005666 0
0.000000 4.659720 0
0.000000 0.000000 0
0.000000 0.171701 0
0.000000 -0.000326 0
-0.036061 -0.308507 0
-0.123706 -0.261171 0
-0.152508 -0.244267 0
-0.168393 -0.232741 0
-0.164774 -0.224105 0
-0.155847 -0.221048 0
-0.148997 -0.223474 0
-0.150085 -0.231182 0
-0.169451 -0.250288 0
-0.190538 -0.277924 0
-0.204551 -0.306109 0
-0.224845 -0.335595 0
-0.278832 -0.351647 0
-0.347573 -0.362359 0
-0.453122 -0.353234 0
-0.554698 -0.318839 0
-0.672977 -0.296824 0
-0.807590 -0.225916 0
-0.758854 -0.100066 0
-0.760651 -0.038694 0
1.000000 -0.012224 0
0.998674 -0.046271 0
0.999817 -0.091201 0
1.000754 -0.138516 0
1.005794 -0.189842 0
1.011984 -0.248135 0
1.017435 -0.317175 0
1.021948 -0.403075 0
1.024258 -0.516995 0
1.028434 -0.667459 0
1.010260 -0.843656 0
0.972896 -1.053750 0
0.864121 -1.266643 0
0.667199 -1.435731 0
0.376292 -1.564026 0
0.000000 0.000137 0
0.000000 0.808964 0
0.000000 0.000000 0
0.000000 0.335684 0
0.000000 -0.001160 0
0.225074 -0.687264 0
0.433989 -0.682279 0
0.648732 -0.630749 0
0.818346 -0.588718 0
0.991086 -0.526820 0
1.087644 -0.417371 0
1.151577 -0.277449 0
1.163341 -0.083204 0
1.107585 0.164441 0
0.990813 0.426054 0
0.755181 0.782413 0
0.567928 1.779498 0
0.581984 3.342687 0
0.499578 4.835280 0
0.288918 5.985833 0
0.000000 0.000171 0
0.000000 -3.220506 0
0.000000 0.000000 0
0.000000 -0.913117 0
0.000000 0.004862 0
0.114968 1.863677 0
0.245760 1.919271 0
0.371403 1.946473 0
0.480747 1.900645 0
0.566278 1.748035 0
0.608929 1.468081 0
0.626408 1.064536 0
0.641256 0.575314 0
0.613398 -0.038189 0
0.613919 -0.813037 0
0.535494 -1.566874 0
0.435905 -2.197752 0
0.416045 -2.872365 0
0.359904 -4.001929 0
0.276983 -5.853761 0
0.163988 -8.077579 0
0.000000 0.006120 0
0.000000 4.606658 0
0.000000 0.000000 0
0.000000 0.155861 0
0.000000 0.000020 0
-0.074480 -0.288810 0
-0.092702 -0.240654 0
-0.124267 -0.213411 0
-0.167127 -0.214946 0
-0.198578 -0.219798 0
-0.219346 -0.223821 0
-0.220327 -0.227433 0
-0.215378 -0.229717 0
-0.201766 -0.246427 0
-0.190031 -0.279825 0
-0.197475 -0.307986 0
-0.251888 -0.311055 0
-0.314008 -0.304873 0
-0.347262 -0.302914 0
-0.424444 -0.299165 0
-0.480296 -0.281902 0
-0.547021 -0.240622 0
-0.653570 -0.169835 0
-0.709059 -0.081044 0
-0.711586 -0.037472 0
1.000000 -0.011806 0
0.999384 -0.045913 0
0.998246 -0.090659 0
0.996348 -0.139111 0
0.997214 -0.192171 0
0.999807 -0.249761 0
0.998066 -0.317664 0
0.993232 -0.402273 0
0.990047 -0.516198 0
0.976764 -0.656575 0
0.942237 -0.819586 0
0.888856 -1.001233 0
0.754117 -1.163026 0
0.556709 -1.284461 0
0.302643 -1.370536 0
0.000000 0.000051 0
0.000000 0.702369 0
0.000000 0.000000 0
0.000000 0.413018 0
0.000000 -0.001714 0
0.236414 -0.826016 0
0.460260 -0.804909 0
0.651983 -0.762559 0
0.862366 -0.702199 0
1.007559 -0.605273 0
1.110999 -0.471886 0
1.165056 -0.297634 0
1.163581 -0.062471 0
1.092012 0.226190 0
0.987111 0.543886 0
0.708007 0.927645 0
0.472505 1.843736 0
0.473257 3.364697 0
0.397218 4.920455 0
0.229500 6.126168 0
0.000000 0.000133 0
0.000000 -3.301203 0
0.000000 0.000000 0
0.000000 -0.871335 0
0.000000 0.003897 0
0.148128 1.772997 0
0.312396 1.823755 0
0.478737 1.856376 0
0.631895 1.821247 0
0.768634 1.685708 0
0.881996 1.427795 0
0.954751 1.041905 0
0.984741 0.566657 0
1.008643 -0.037891 0
0.989241 -0.777760 0
0.874192 -1.486330 0
0.710637 -2.127031 0
0.583708 -2.815729 0
0.445530 -3.934149 0
0.309496 -5.776817 0
0.167414 -7.984614 0
0.000000 0.006660 0
0.000000 4.555747 0
0.000000 0.000000 0
0.000000 0.124434 0
0.000000 0.000115 0
-0.057577 -0.249120 0
-0.093464 -0.229276 0
-0.112609 -0.196603 0
-0.141818 -0.185151 0
-0.164438 -0.190653 0