# vtk DataFile Version 2.0
generated by CFD-lab course output (written by Tobias Neckel) 
ASCII

DATASET STRUCTURED_GRID
DIMENSIONS  81 26 1 
POINTS 2106 float

0.000000 0.000000 0
0.125000 0.000000 0
0.250000 0.000000 0
0.375000 0.000000 0
0.500000 0.000000 0
0.625000 0.000000 0
0.750000 0.000000 0
0.875000 0.000000 0
1.000000 0.000000 0
1.125000 0.000000 0
1.250000 0.000000 0
1.375000 0.000000 0
1.500000 0.000000 0
1.625000 0.000000 0
1.750000 0.000000 0
1.875000 0.000000 0
2.000000 0.000000 0
2.125000 0.000000 0
2.250000 0.000000 0
2.375000 0.000000 0
2.500000 0.000000 0
2.625000 0.000000 0
2.750000 0.000000 0
2.875000 0.000000 0
3.000000 0.000000 0
3.125000 0.000000 0
3.250000 0.000000 0
3.375000 0.000000 0
3.500000 0.000000 0
3.625000 0.000000 0
3.750000 0.000000 0
3.875000 0.000000 0
4.000000 0.000000 0
4.125000 0.000000 0
4.250000 0.000000 0
4.375000 0.000000 0
4.500000 0.000000 0
4.625000 0.000000 0
4.750000 0.000000 0
4.875000 0.000000 0
5.000000 0.000000 0
5.125000 0.000000 0
5.250000 0.000000 0
5.375000 0.000000 0
5.500000 0.000000 0
5.625000 0.000000 0
5.750000 0.000000 0
5.875000 0.000000 0
6.000000 0.000000 0
6.125000 0.000000 0
6.250000 0.000000 0
6.375000 0.000000 0
6.500000 0.000000 0
6.625000 0.000000 0
6.750000 0.000000 0
6.875000 0.000000 0
7.000000 0.000000 0
7.125000 0.000000 0
7.250000 0.000000 0
7.375000 0.000000 0
7.500000 0.000000 0
7.625000 0.000000 0
7.750000 0.000000 0
7.875000 0.000000 0
8.000000 0.000000 0
8.125000 0.000000 0
8.250000 0.000000 0
8.375000 0.000000 0
8.500000 0.000000 0
8.625000 0.000000 0
8.750000 0.000000 0
8.875000 0.000000 0
9.000000 0.000000 0
9.125000 0.000000 0
9.250000 0.000000 0
9.375000 0.000000 0
9.500000 0.000000 0
9.625000 0.000000 0
9.750000 0.000000 0
9.875000 0.000000 0
10.000000 0.000000 0
0.000000 0.080000 0
0.125000 0.080000 0
0.250000 0.080000 0
0.375000 0.080000 0
0.500000 0.080000 0
0.625000 0.080000 0
0.750000 0.080000 0
0.875000 0.080000 0
1.000000 0.080000 0
1.125000 0.080000 0
1.250000 0.080000 0
1.375000 0.080000 0
1.500000 0.080000 0
1.625000 0.080000 0
1.750000 0.080000 0
1.875000 0.080000 0
2.000000 0.080000 0
2.125000 0.080000 0
2.250000 0.080000 0
2.375000 0.080000 0
2.500000 0.080000 0
2.625000 0.080000 0
2.750000 0.080000 0
2.875000 0.080000 0
3.000000 0.080000 0
3.125000 0.080000 0
3.250000 0.080000 0
3.375000 0.080000 0
3.500000 0.080000 0
3.625000 0.080000 0
3.750000 0.080000 0
3.875000 0.080000 0
4.000000 0.080000 0
4.125000 0.080000 0
4.250000 0.080000 0
4.375000 0.080000 0
4.500000 0.080000 0
4.625000 0.080000 0
4.750000 0.080000 0
4.875000 0.080000 0
5.000000 0.080000 0
5.125000 0.080000 0
5.250000 0.080000 0
5.375000 0.080000 0
5.500000 0.080000 0
5.625000 0.080000 0
5.750000 0.080000 0
5.875000 0.080000 0
6.000000 0.080000 0
6.125000 0.080000 0
6.250000 0.080000 0
6.375000 0.080000 0
6.500000 0.080000 0
6.625000 0.080000 0
6.750000 0.080000 0
6.875000 0.080000 0
7.000000 0.080000 0
7.125000 0.080000 0
7.250000 0.080000 0
7.375000 0.080000 0
7.500000 0.080000 0
7.625000 0.080000 0
7.750000 0.080000 0
7.875000 0.080000 0
8.000000 0.080000 0
8.125000 0.080000 0
8.250000 0.080000 0
8.375000 0.080000 0
8.500000 0.080000 0
8.625000 0.080000 0
8.750000 0.080000 0
8.875000 0.080000 0
9.000000 0.080000 0
9.125000 0.080000 0
9.250000 0.080000 0
9.375000 0.080000 0
9.500000 0.080000 0
9.625000 0.080000 0
9.750000 0.080000 0
9.875000 0.080000 0
10.000000 0.080000 0
0.000000 0.160000 0
0.125000 0.160000 0
0.250000 0.160000 0
0.375000 0.160000 0
0.500000 0.160000 0
0.625000 0.160000 0
0.750000 0.160000 0
0.875000 0.160000 0
1.000000 0.160000 0
1.125000 0.160000 0
1.250000 0.160000 0
1.375000 0.160000 0
1.500000 0.160000 0
1.625000 0.160000 0
1.750000 0.160000 0
1.875000 0.160000 0
2.000000 0.160000 0
2.125000 0.160000 0
2.250000 0.160000 0
2.375000 0.160000 0
2.500000 0.160000 0
2.625000 0.160000 0
2.750000 0.160000 0
2.875000 0.160000 0
3.000000 0.160000 0
3.125000 0.160000 0
3.250000 0.160000 0
3.375000 0.160000 0
3.500000 0.160000 0
3.625000 0.160000 0
3.750000 0.160000 0
3.875000 0.160000 0
4.000000 0.160000 0
4.125000 0.160000 0
4.250000 0.160000 0
4.375000 0.160000 0
4.500000 0.160000 0
4.625000 0.160000 0
4.750000 0.160000 0
4.875000 0.160000 0
5.000000 0.160000 0
5.125000 0.160000 0
5.250000 0.160000 0
5.375000 0.160000 0
5.500000 0.160000 0
5.625000 0.160000 0
5.750000 0.160000 0
5.875000 0.160000 0
6.000000 0.160000 0
6.125000 0.160000 0
6.250000 0.160000 0
6.375000 0.160000 0
6.500000 0.160000 0
6.625000 0.160000 0
6.750000 0.160000 0
6.875000 0.160000 0
7.000000 0.160000 0
7.125000 0.160000 0
7.250000 0.160000 0
7.375000 0.160000 0
7.500000 0.160000 0
7.625000 0.160000 0
7.750000 0.160000 0
7.875000 0.160000 0
8.000000 0.160000 0
8.125000 0.160000 0
8.250000 0.160000 0
8.375000 0.160000 0
8.500000 0.160000 0
8.625000 0.160000 0
8.750000 0.160000 0
8.875000 0.160000 0
9.000000 0.160000 0
9.125000 0.160000 0
9.250000 0.160000 0
9.375000 0.160000 0
9.500000 0.160000 0
9.625000 0.160000 0
9.750000 0.160000 0
9.875000 0.160000 0
10.000000 0.160000 0
0.000000 0.240000 0
0.125000 0.240000 0
0.250000 0.240000 0
0.375000 0.240000 0
0.500000 0.240000 0
0.625000 0.240000 0
0.750000 0.240000 0
0.875000 0.240000 0
1.000000 0.240000 0
1.125000 0.240000 0
1.250000 0.240000 0
1.375000 0.240000 0
1.500000 0.240000 0
1.625000 0.240000 0
1.750000 0.240000 0
1.875000 0.240000 0
2.000000 0.240000 0
2.125000 0.240000 0
2.250000 0.240000 0
2.375000 0.240000 0
2.500000 0.240000 0
2.625000 0.240000 0
2.750000 0.240000 0
2.875000 0.240000 0
3.000000 0.240000 0
3.125000 0.240000 0
3.250000 0.240000 0
3.375000 0.240000 0
3.500000 0.240000 0
3.625000 0.240000 0
3.750000 0.240000 0
3.875000 0.240000 0
4.000000 0.240000 0
4.125000 0.240000 0
4.250000 0.240000 0
4.375000 0.240000 0
4.500000 0.240000 0
4.625000 0.240000 0
4.750000 0.240000 0
4.875000 0.240000 0
5.000000 0.240000 0
5.125000 0.240000 0
5.250000 0.240000 0
5.375000 0.240000 0
5.500000 0.240000 0
5.625000 0.240000 0
5.750000 0.240000 0
5.875000 0.240000 0
6.000000 0.240000 0
6.125000 0.240000 0
6.250000 0.240000 0
6.375000 0.240000 0
6.500000 0.240000 0
6.625000 0.240000 0
6.750000 0.240000 0
6.875000 0.240000 0
7.000000 0.240000 0
7.125000 0.240000 0
7.250000 0.240000 0
7.375000 0.240000 0
7.500000 0.240000 0
7.625000 0.240000 0
7.750000 0.240000 0
7.875000 0.240000 0
8.000000 0.240000 0
8.125000 0.240000 0
8.250000 0.240000 0
8.375000 0.240000 0
8.500000 0.240000 0
8.625000 0.240000 0
8.750000 0.240000 0
8.875000 0.240000 0
9.000000 0.240000 0
9.125000 0.240000 0
9.250000 0.240000 0
9.375000 0.240000 0
9.500000 0.240000 0
9.625000 0.240000 0
9.750000 0.240000 0
9.875000 0.240000 0
10.000000 0.240000 0
0.000000 0.320000 0
0.125000 0.320000 0
0.250000 0.320000 0
0.375000 0.320000 0
0.500000 0.320000 0
0.625000 0.320000 0
0.750000 0.320000 0
0.875000 0.320000 0
1.000000 0.320000 0
1.125000 0.320000 0
1.250000 0.320000 0
1.375000 0.320000 0
1.500000 0.320000 0
1.625000 0.320000 0
1.750000 0.320000 0
1.875000 0.320000 0
2.000000 0.320000 0
2.125000 0.320000 0
2.250000 0.320000 0
2.375000 0.320000 0
2.500000 0.320000 0
2.625000 0.320000 0
2.750000 0.320000 0
2.875000 0.320000 0
3.000000 0.320000 0
3.125000 0.320000 0
3.250000 0.320000 0
3.375000 0.320000 0
3.500000 0.320000 0
3.625000 0.320000 0
3.750000 0.320000 0
3.875000 0.320000 0
4.000000 0.320000 0
4.125000 0.320000 0
4.250000 0.320000 0
4.375000 0.320000 0
4.500000 0.320000 0
4.625000 0.320000 0
4.750000 0.320000 0
4.875000 0.320000 0
5.000000 0.320000 0
5.125000 0.320000 0
5.250000 0.320000 0
5.375000 0.320000 0
5.500000 0.320000 0
5.625000 0.320000 0
5.750000 0.320000 0
5.875000 0.320000 0
6.000000 0.320000 0
6.125000 0.320000 0
6.250000 0.320000 0
6.375000 0.320000 0
6.500000 0.320000 0
6.625000 0.320000 0
6.750000 0.320000 0
6.875000 0.320000 0
7.000000 0.320000 0
7.125000 0.320000 0
7.250000 0.320000 0
7.375000 0.320000 0
7.500000 0.320000 0
7.625000 0.320000 0
7.750000 0.320000 0
7.875000 0.320000 0
8.000000 0.320000 0
8.125000 0.320000 0
8.250000 0.320000 0
8.375000 0.320000 0
8.500000 0.320000 0
8.625000 0.320000 0
8.750000 0.320000 0
8.875000 0.320000 0
9.000000 0.320000 0
9.125000 0.320000 0
9.250000 0.320000 0
9.375000 0.320000 0
9.500000 0.320000 0
9.625000 0.320000 0
9.750000 0.320000 0
9.875000 0.320000 0
10.000000 0.320000 0
0.000000 0.400000 0
0.125000 0.400000 0
0.250000 0.400000 0
0.375000 0.400000 0
0.500000 0.400000 0
0.625000 0.400000 0
0.750000 0.400000 0
0.875000 0.400000 0
1.000000 0.400000 0
1.125000 0.400000 0
1.250000 0.400000 0
1.375000 0.400000 0
1.500000 0.400000 0
1.625000 0.400000 0
1.750000 0.400000 0
1.875000 0.400000 0
2.000000 0.400000 0
2.125000 0.400000 0
2.250000 0.400000 0
2.375000 0.400000 0
2.500000 0.400000 0
2.625000 0.400000 0
2.750000 0.400000 0
2.875000 0.400000 0
3.000000 0.400000 0
3.125000 0.400000 0
3.250000 0.400000 0
3.375000 0.400000 0
3.500000 0.400000 0
3.625000 0.400000 0
3.750000 0.400000 0
3.875000 0.400000 0
4.000000 0.400000 0
4.125000 0.400000 0
4.250000 0.400000 0
4.375000 0.400000 0
4.500000 0.400000 0
4.625000 0.400000 0
4.750000 0.400000 0
4.875000 0.400000 0
5.000000 0.400000 0
5.125000 0.400000 0
5.250000 0.400000 0
5.375000 0.400000 0
5.500000 0.400000 0
5.625000 0.400000 0
5.750000 0.400000 0
5.875000 0.400000 0
6.000000 0.400000 0
6.125000 0.400000 0
6.250000 0.400000 0
6.375000 0.400000 0
6.500000 0.400000 0
6.625000 0.400000 0
6.750000 0.400000 0
6.875000 0.400000 0
7.000000 0.400000 0
7.125000 0.400000 0
7.250000 0.400000 0
7.375000 0.400000 0
7.500000 0.400000 0
7.625000 0.400000 0
7.750000 0.400000 0
7.875000 0.400000 0
8.000000 0.400000 0
8.125000 0.400000 0
8.250000 0.400000 0
8.375000 0.400000 0
8.500000 0.400000 0
8.625000 0.400000 0
8.750000 0.400000 0
8.875000 0.400000 0
9.000000 0.400000 0
9.125000 0.400000 0
9.250000 0.400000 0
9.375000 0.400000 0
9.500000 0.400000 0
9.625000 0.400000 0
9.750000 0.400000 0
9.875000 0.400000 0
10.000000 0.400000 0
0.000000 0.480000 0
0.125000 0.480000 0
0.250000 0.480000 0
0.375000 0.480000 0
0.500000 0.480000 0
[...]
POINT_DATA 2106 

VECTORS velocity float
0.500000 0.000000 0
-0.000005 0.000000 0
-0.000008 0.000000 0
-0.000011 0.000000 0
-0.000014 0.000000 0
-0.000018 0.000000 0
-0.000022 0.000000 0
-0.000026 0.000000 0
-0.000032 0.000000 0
-0.000039 0.000000 0
-0.000048 0.000000 0
-0.000059 0.000000 0
-0.000072 0.000000 0
-0.000086 0.000000 0
-0.000087 0.000000 0
0.000009 0.000000 0
0.000046 0.000000 0
-0.000323 0.000000 0
-0.000380 0.000000 0
-0.000146 0.000000 0
-0.000084 0.000000 0
-0.000176 0.000000 0
-0.000202 0.000000 0
-0.000132 0.000000 0
-0.000060 0.000000 0
-0.000045 0.000000 0
-0.000074 0.000000 0
-0.000110 0.000000 0
-0.000138 0.000000 0
-0.000172 0.000000 0
-0.000286 0.000000 0
-0.000767 0.000000 0
-0.003336 0.000000 0
0.000924 0.000000 0
0.001241 0.000000 0
0.000000 0.000000 0
0.000000 0.000000 0
0.000000 0.000000 0
0.000000 0.000000 0
0.000000 0.000000 0
-0.000012 0.000000 0
-0.000039 0.000000 0
-0.000046 0.000000 0
-0.000052 0.000000 0
-0.000022 0.000000 0
0.000012 0.000000 0
0.000027 0.000000 0
0.000025 0.000000 0
0.000024 0.000000 0
0.000033 0.000000 0
0.000016 0.000000 0
-0.000122 0.000000 0
-0.000439 0.000000 0
-0.000625 0.000000 0
-0.000840 0.000000 0
-0.009117 0.000000 0
0.009164 0.000000 0
0.001194 0.000000 0
0.000181 0.000000 0
0.000182 0.000000 0
0.000118 0.000000 0
0.000046 0.000000 0
0.000026 0.000000 0
0.000016 0.000000 0
0.000002 0.000000 0
-0.000002 0.000000 0
0.000001 0.000000 0
0.000004 0.000000 0
0.000022 0.000000 0
0.000046 0.000000 0
0.000065 0.000000 0
0.000073 0.000000 0
0.000067 0.000000 0
0.000046 0.000000 0
0.000012 0.000000 0
-0.000026 0.000000 0
-0.000053 0.000000 0
-0.000066 0.000000 0
-0.000072 0.000000 0
-0.000071 0.000000 0
-0.000070 0.000000 0
1.000000 -0.001821 0
1.007173 -0.006225 0
1.022532 -0.011887 0
1.047378 -0.018634 0
1.083444 -0.026769 0
1.133141 -0.036754 0
1.199702 -0.049407 0
1.287957 -0.064606 0
1.401452 -0.086755 0
1.556507 -0.117947 0
1.766973 -0.169628 0
2.075897 -0.237726 0
2.496211 -0.336403 0
3.111589 -0.452938 0
3.928510 -0.660813 0
5.276237 -0.700699 0
6.155529 -0.469013 0
6.655775 -0.292764 0
6.979827 -0.207648 0
7.245291 -0.177651 0
7.507006 -0.158435 0
7.728034 -0.127973 0
7.893051 -0.090298 0
7.999778 -0.052920 0
8.056186 -0.020466 0
8.068417 0.011885 0
8.034277 0.050198 0
7.937246 0.109496 0
7.735544 0.202779 0
7.366519 0.327409 0
6.795608 0.475994 0
5.938844 0.645106 0
4.794741 0.834539 0
3.380796 0.996227 0
1.723884 1.046014 0
0.000000 0.000787 0
0.000000 -0.516109 0
0.000000 0.000000 0
0.000000 -0.899203 0
0.000000 0.000000 0
-2.159577 1.311832 0
-3.208564 0.571865 0
-3.563182 0.233396 0
-3.797439 0.111432 0
-3.903884 0.055335 0
-3.953449 0.026876 0
-3.977638 0.012369 0
-3.981983 0.001955 0
-3.969627 -0.009271 0
-3.937344 -0.025496 0
-3.872211 -0.052238 0
-3.748188 -0.102137 0
-3.514192 -0.213700 0
-3.015912 -0.500485 0
-1.888690 -1.283279 0
1.097189 -2.939451 0
6.032675 -2.967546 0
8.534111 -1.374093 0
9.631924 -0.561844 0
9.981591 -0.183535 0
10.057226 -0.049581 0
10.080041 -0.012276 0
10.084323 0.000116 0
10.078506 0.002557 0
10.077239 0.000057 0
10.083091 -0.000933 0
10.085941 0.000581 0
10.085827 0.002286 0
10.083097 0.003442 0
10.079315 0.003992 0
10.075030 0.004077 0
10.070941 0.003461 0
10.068486 0.002322 0
10.068189 0.001392 0
10.068930 0.001256 0
10.068837 0.001550 0
10.068230 0.001649 0
10.067913 0.001694 0
10.067268 0.001751 0
10.066354 0.000830 0
10.066484 -0.000071 0
1.000000 -0.004579 0
1.008235 -0.014401 0
1.024682 -0.025716 0
1.050293 -0.038968 0
1.086597 -0.054873 0
1.135815 -0.074390 0
1.201079 -0.099067 0
1.286615 -0.129105 0
1.398240 -0.171857 0
1.544675 -0.233919 0
1.750944 -0.332395 0
2.030579 -0.466698 0
2.436386 -0.662828 0
3.018246 -0.916658 0
3.863738 -1.385361 0
5.372121 -1.425279 0
6.036892 -0.882892 0
6.358271 -0.527539 0
6.552042 -0.377279 0
6.738485 -0.337383 0
6.975425 -0.308945 0
7.172444 -0.247058 0
7.312506 -0.173906 0
7.402943 -0.104397 0
7.452900 -0.043919 0
7.471607 0.014031 0
7.462242 0.083959 0
7.414278 0.191199 0
7.302035 0.365275 0
7.059501 0.601568 0
6.576115 0.913722 0
5.825641 1.280564 0
4.752679 1.637160 0
3.424843 1.965358 0
1.822843 2.163719 0
0.000000 0.000760 0
0.000000 -1.102531 0
0.000000 0.000000 0
0.000000 -1.382198 0
0.000000 -0.000059 0
-1.180919 2.053496 0
-1.760518 0.898320 0
-2.096859 0.376893 0
-2.330142 0.218061 0
-2.404218 0.099859 0
-2.450035 0.047216 0
-2.472256 0.018274 0
-2.475384 -0.005115 0
-2.459425 -0.028556 0
-2.417416 -0.062333 0
-2.343342 -0.121046 0
-2.203556 -0.229119 0
-1.958723 -0.468643 0
-1.447311 -1.040307 0
-0.004075 -2.632370 0
2.468180 -5.069658 0
5.757848 -4.759614 0
7.122261 -2.303503 0
7.688104 -0.926370 0
7.727806 -0.272175 0
7.660354 -0.062989 0
7.656462 -0.017322 0
7.658395 0.001002 0
7.646990 0.004553 0
7.643946 -0.002914 0
7.656818 -0.005549 0
7.661856 -0.001730 0
7.664372 0.001841 0
7.663846 0.004189 0
7.662879 0.005184 0
7.661530 0.005380 0
7.659571 0.004209 0
7.659039 0.001783 0
7.661028 -0.000262 0
7.664619 -0.000394 0
7.666227 0.000470 0
7.666760 0.000613 0
7.668449 0.000637 0
7.669678 0.001019 0
7.669654 0.000524 0
7.669691 -0.000145 0
1.000000 -0.007085 0
1.007407 -0.022012 0
1.022746 -0.038799 0
1.046805 -0.058255 0
1.080908 -0.081498 0
1.127053 -0.110018 0
1.188184 -0.145914 0
1.267799 -0.190784 0
1.375358 -0.251909 0
1.508080 -0.343673 0
1.695783 -0.480603 0
1.946203 -0.676404 0
2.298150 -0.968505 0
2.814894 -1.366439 0
3.632359 -2.167289 0
5.219496 -2.091513 0
5.454916 -1.100144 0
5.402840 -0.622457 0
5.337844 -0.450981 0
5.309933 -0.448612 0
5.514501 -0.436165 0
5.678538 -0.343702 0
5.787574 -0.237813 0
5.851942 -0.142769 0
5.888554 -0.064408 0
5.910270 0.005909 0
5.926885 0.086891 0
5.944274 0.212031 0
5.964137 0.429839 0
5.935549 0.792001 0
5.686712 1.265668 0
5.149194 1.812108 0
4.324378 2.371053 0
3.149805 2.871325 0
1.722148 3.237917 0
0.000000 0.000099 0
0.000000 -1.683418 0
0.000000 0.000000 0
0.000000 -1.655033 0
0.000000 -0.000036 0
-0.680478 2.438571 0
-0.986472 1.158071 0
-1.338671 0.597959 0
-1.446943 0.308145 0
-1.492634 0.132071 0
-1.554377 0.070425 0
-1.595220 0.028597 0
-1.610051 -0.006253 0
-1.604163 -0.046366 0
-1.569456 -0.099784 0
-1.493106 -0.189104 0
-1.342241 -0.348289 0
-1.078987 -0.697692 0
-0.590210 -1.751455 0
0.801082 -3.789189 0
2.501580 -6.627077 0
5.121755 -5.946153 0
4.839617 -2.609451 0
4.708602 -0.949387 0
4.333775 -0.165769 0
3.799521 -0.003914 0
3.781086 -0.011015 0
3.813144 0.006185 0
3.760506 0.011812 0
3.712739 -0.006226 0
3.780189 -0.012389 0
3.780833 -0.004246 0
3.791675 0.001020 0
3.791415 0.004404 0
3.792454 0.005482 0
3.794790 0.006201 0
3.792342 0.005062 0
3.793645 0.001398 0
3.801394 -0.002172 0
3.819483 -0.002064 0
3.829333 0.000187 0
3.831884 0.000234 0
3.841474 -0.000166 0
3.849175 0.000987 0
3.851261 0.000828 0
3.851380 -0.000117 0
1.000000 -0.009313 0
1.006378 -0.028949 0
1.020340 -0.050925 0
1.042407 -0.076187 0
1.073648 -0.106227 0
1.115804 -0.143042 0
1.171341 -0.189140 0
1.243566 -0.248891 0
1.339977 -0.325632 0
1.459223 -0.438986 0
1.619659 -0.612789 0
1.825500 -0.852207 0
2.093017 -1.218786 0
2.474285 -1.770547 0
3.105258 -2.924302 0
4.372544 -2.591711 0
3.634599 -1.000227 0
3.036715 -0.452609 0
2.662016 -0.317815 0
2.268552 -0.450440 0
3.083254 -0.544849 0
3.475463 -0.421821 0
3.663631 -0.284881 0
3.757576 -0.169020 0
3.804874 -0.081246 0
3.830983 -0.010498 0
3.855829 0.062199 0
3.897272 0.167361 0
3.983450 0.370863 0
4.108500 0.779123 0
4.226933 1.416992 0
4.052484 2.152461 0
3.545423 2.916772 0
2.653243 3.630788 0
1.490732 4.179597 0
0.000000 -0.000233 0
0.000000 -2.205700 0
0.000000 0.000000 0
0.000000 -1.817632 0
0.000000 0.000018 0
-0.404160 2.684845 0
-0.629095 1.319567 0
-0.814137 0.671599 0
-0.817748 0.316601 0
-0.938459 0.168621 0
-1.029910 0.112875 0
-1.058751 0.053910 0
-1.058868 0.000613 0
-1.041487 -0.054532 0
-1.017751 -0.133406 0
-0.938532 -0.266460 0
-0.796736 -0.494150 0
-0.564972 -0.949938 0
-0.027248 -2.243547 0
0.891715 -4.611111 0
2.147867 -7.834884 0
3.851224 -6.255952 0
1.584929 -2.039079 0
0.367175 -0.602625 0
0.101521 0.309642 0
0.139520 0.290738 0
0.792523 -0.026034 0
0.225969 0.014180 0
0.727415 0.068819 0
0.056555 -0.015504 0
0.747474 -0.049122 0
0.534760 -0.009075 0
0.804569 -0.004924 0
0.787182 0.003697 0
0.725349 0.003031 0
0.690929 0.005459 0
0.663029 0.004949 0
0.671649 -0.004003 0
0.718836 -0.016792 0
0.809400 -0.018267 0
0.851522 -0.007460 0
0.837734 -0.007150 0
0.884863 -0.010422 0
0.919173 -0.005237 0
0.908785 -0.000881 0
0.909065 -0.000294 0
1.000000 -0.011160 0
1.004836 -0.035020 0
1.017204 -0.061852 0
1.036832 -0.092367 0
1.064499 -0.128467 0
1.101668 -0.172536 0
1.150168 -0.227677 0
1.212845 -0.298706 0
1.292411 -0.389924 0
1.398225 -0.522665 0
1.526175 -0.715014 0
1.654564 -0.979349 0
1.842572 -1.383723 0
2.050581 -2.014268 0
2.309067 -3.382171 0
2.005209 -2.430287 0
-0.006261 -0.245209 0
-0.005083 0.000000 0
-0.000980 0.040646 0
0.108470 -0.718201 0
1.556971 -1.208585 0
2.134585 -0.715140 0
2.393494 -0.418363 0
2.522812 -0.233161 0
2.580905 -0.111385 0
2.601543 -0.026699 0
2.610465 0.044469 0
2.628200 0.130357 0
2.668028 0.294657 0
2.774498 0.636175 0
2.929650 1.301521 0
2.998178 2.248277 0
2.722036 3.266570 0
2.123345 4.186331 0
1.204998 4.935995 0
0.000000 -0.000178 0
0.000000 -2.637766 0
0.000000 0.000000 0
0.000000 -1.913588 0
0.000000 0.000077 0
-0.240543 2.841199 0
-0.393920 1.420460 0
-0.486917 0.718701 0
-0.594479 0.387716 0
-0.768114 0.267859 0
-0.847306 0.147416 0
-0.873745 0.047134 0
-0.873707 -0.017298 0
-0.846884 -0.072677 0
-0.787813 -0.165671 0
-0.676186 -0.330549 0
-0.546857 -0.587363 0
-0.376651 -1.190159 0
0.127785 -2.683729 0
0.760094 -5.181257 0
1.483956 -8.521158 0
1.754391 -5.585868 0
-0.000248 -0.379654 0
-0.000108 0.000000 0
0.000004 -0.020063 0
-0.566265 -0.446149 0
-0.390959 -0.066336 0
-0.259793 0.047861 0
-0.481103 0.120243 0
-0.470651 -0.019057 0
-0.544109 -0.318433 0
0.096065 -0.040780 0
0.109292 -0.160523 0
0.061212 0.055111 0
-0.000358 0.067091 0
-0.017611 0.046093 0
-0.108760 0.017408 0
-0.191187 -0.034312 0
-0.122524 -0.090325 0
0.001059 -0.086975 0
0.061145 -0.017939 0
0.068484 -0.021097 0
0.060549 -0.052280 0
0.103756 -0.014316 0
0.119146 0.007305 0
0.119711 -0.000465 0
1.000000 -0.012401 0
1.002203 -0.039950 0
1.013078 -0.071398 0
1.030010 -0.106451 0
1.053551 -0.147717 0
1.084984 -0.197865 0
1.125491 -0.260288 0
1.176646 -0.339922 0
1.240076 -0.444270 0
1.322046 -0.588589 0
1.408038 -0.776840 0
1.497236 -1.054697 0
1.593082 -1.472232 0
1.630198 -2.069099 0
1.450211 -2.895260 0
0.156934 0.000049 0
-1.122979 1.683882 0
-0.673646 0.000000 0
-0.410499 1.208701 0
0.000000 -0.000102 0
1.131072 -1.824909 0
1.539987 -0.957193 0
1.757160 -0.533343 0
1.875694 -0.288960 0
1.914048 -0.131630 0
1.905044 -0.029413 0
1.884609 0.045142 0
1.889665 0.130523 0
1.914881 0.277235 0
1.981150 0.611689 0
2.096393 1.273840 0
2.189572 2.285337 0
2.057391 3.476668 0
1.654591 4.601696 0
0.944436 5.538541 0
0.000000 -0.000005 0
0.000000 -2.976672 0
0.000000 0.000000 0
0.000000 -1.971451 0
0.000000 0.000152 0
-0.146168 2.936961 0
-0.250858 1.477251 0
-0.327609 0.799961 0
-0.519405 0.496572 0
-0.659308 0.330433 0
-0.723224 0.180482 0
-0.768311 0.070811 0
-0.772101 -0.016573 0
-0.726249 -0.109500 0
-0.635025 -0.242648 0
-0.528978 -0.420667 0
-0.400024 -0.685848 0
-0.185240 -1.381705 0
0.170312 -2.971059 0
0.534783 -5.479056 0
0.846436 -8.471229 0
0.242978 -0.000160 0
0.114410 5.008528 0
1.081328 0.000000 0
1.056259 0.123294 0
0.000000 0.000096 0
-0.329218 -0.230385 0
0.035743 0.071879 0
-0.577174 0.203775 0
-0.275536 0.024827 0
-0.577384 -0.411813 0
-0.217996 -0.427244 0
-0.219367 0.017389 0
-0.443397 0.073880 0
-0.373795 0.053485 0
-0.460731 0.074843 0
-0.338969 0.116045 0
-0.346838 0.004813 0
-0.367040 -0.139822 0
-0.480137 -0.135808 0
-0.460639 -0.050605 0
-0.392917 -0.006762 0
-0.504582 -0.032989 0
-0.543177 -0.042733 0
-0.516291 -0.011085 0
-0.515369 -0.001000 0
1.000000 -0.012563 0
1.000526 -0.043380 0
1.008799 -0.079644 0
1.023060 -0.118265 0
1.042194 -0.163646 0
1.067162 -0.218573 0
1.098752 -0.286335 0
1.137528 -0.372036 0
1.183894 -0.482975 0
1.237308 -0.630156 0
1.291957 -0.827132 0
1.350460 -1.097771 0
1.359353 -1.468813 0
1.256027 -1.922825 0
0.887998 -2.439277 0
0.000000 0.000026 0
0.000000 1.357405 0
0.000000 0.000000 0
0.000000 1.465993 0
0.000000 -0.000087 0
0.672113 -2.177522 0
1.026417 -1.115833 0
1.174426 -0.633212 0
1.282364 -0.333566 0
1.304494 -0.130166 0
1.267829 -0.007855 0
1.222501 0.054315 0
1.171686 0.110986 0
1.230038 0.236109 0
1.318434 0.520011 0
1.465499 1.168134 0
1.571278 2.273242 0
1.520360 3.608962 0
1.252350 4.898625 0
0.717918 5.994936 0
0.000000 0.000103 0
0.000000 -3.241925 0
0.000000 0.000000 0
0.000000 -2.007246 0
0.000000 -0.000028 0
-0.090957 3.001755 0
-0.172103 1.536586 0
-0.279713 0.890575 0
-0.447223 0.600007 0
-0.564416 0.398307 0
-0.664972 0.217182 0
-0.687343 0.078419 0
-0.671959 -0.044213 0
-0.605016 -0.160402 0
-0.524185 -0.291921 0
-0.368542 -0.480945 0
-0.262362 -0.807351 0
-0.093164 -1.555170 0
0.137855 -3.144539 0
0.352599 -5.613972 0
0.450875 -8.334399 0
0.000000 -0.000086 0
0.000000 4.819913 0
0.000000 0.000000 0
0.000000 0.222792 0
0.000000 -0.000802 0
-0.344680 -0.097417 0
-0.528989 0.206559 0
-0.491949 0.319469 0
-0.333115 -0.018915 0
-0.362536 -0.355252 0
-0.673964 -0.269904 0
-0.819698 -0.016260 0
-0.669147 0.153952 0
-0.895110 0.078192 0
-0.835286 0.023811 0
-0.703429 -0.055476 0
-0.572689 -0.016339 0
-0.737892 -0.005007 0
-0.975966 -0.027065 0
-0.962596 -0.073753 0
-0.916175 0.007033 0
-1.001664 0.043894 0
-1.053412 -0.006815 0
-1.051234 -0.010485 0
-1.050797 -0.001629 0
1.000000 -0.012731 0
1.000131 -0.045572 0
1.004574 -0.085814 0
1.015584 -0.127818 0
1.030073 -0.175937 0
1.048428 -0.234058 0
1.070923 -0.305317 0
1.097434 -0.394408 0
1.127022 -0.508124 0
1.158571 -0.657744 0
1.188466 -0.849252 0
1.194836 -1.097825 0
1.154871 -1.411790 0
0.999628 -1.767427 0
0.646818 -2.091397 0
0.000000 0.000004 0
0.000000 1.115515 0
0.000000 0.000000 0
0.000000 1.638868 0
0.000000 -0.000083 0
0.439403 -2.481810 0
0.755451 -1.278670 0
0.769584 -0.697146 0
0.904401 -0.372200 0
0.922715 -0.122325 0
0.914892 0.023066 0
0.843231 0.106676 0
0.769050 0.125703 0
0.756709 0.183319 0
0.876207 0.460997 0
1.003507 1.112023 0
1.121355 2.250230 0
1.119930 3.680785 0
0.934752 5.115262 0
0.527277 6.340048 0
0.000000 0.000101 0
0.000000 -3.436035 0
0.000000 0.000000 0
0.000000 -2.029806 0
0.000000 0.000014 0
-0.056310 3.047114 0
-0.117289 1.598058 0
-0.218902 0.976042 0
-0.363829 0.678786 0
-0.476869 0.469796 0
-0.589428 0.259160 0
-0.646746 0.075287 0
-0.593006 -0.069258 0
-0.526910 -0.204072 0
-0.418587 -0.393988 0
-0.278885 -0.588229 0
-0.130959 -0.862086 0
-0.048979 -1.637839 0
0.096043 -3.256342 0
0.230348 -5.679384 0
0.245826 -8.245561 0
0.000000 -0.000054 0
0.000000 4.720072 0
0.000000 0.000000 0
0.000000 -0.096487 0
0.000000 0.000919 0
-0.378311 0.108181 0
-0.745810 0.166138 0
-0.333647 0.078422 0
0.011364 -0.057990 0
-0.293704 -0.193663 0
-0.596340 -0.134654 0
-0.807298 0.014313 0
-0.568456 0.122151 0
-0.625723 0.159821 0
-0.700658 -0.047826 0
-0.765444 -0.052010 0
-0.575561 0.026876 0
-0.590854 0.118282 0
-0.637590 0.008010 0
-0.589335 -0.088864 0
-0.489620 0.018249 0
-0.542606 0.054850 0
-0.538764 -0.011000 0
-0.556605 -0.012751 0
-0.556646 -0.001558 0
1.000000 -0.012640 0
0.999191 -0.046298 0
1.000962 -0.089528 0
1.008341 -0.134579 0
1.017323 -0.184661 0
1.028941 -0.244711 0
1.042844 -0.317694 0
1.058365 -0.407934 0
1.073782 -0.522098 0
1.088363 -0.669474 0
1.092764 -0.850336 0
1.068872 -1.076266 0
1.000015 -1.343875 0
0.815702 -1.597666 0
0.476086 -1.799510 0
0.000000 -0.000019 0
0.000000 0.943393 0
0.000000 0.000000 0
0.000000 1.747203 0
0.000000 -0.000091 0
0.278242 -2.661004 0
0.443266 -1.327145 0
0.436821 -0.728536 0
0.567183 -0.431567 0
0.637502 -0.136877 0
0.667181 0.043018 0
0.651564 0.147657 0
0.658452 0.166363 0
0.436958 0.167532 0
0.555429 0.362063 0
0.723758 1.011243 0
0.817913 2.198734 0
0.832675 3.728391 0
0.686174 5.277926 0
0.392014 6.593181 0
0.000000 0.000038 0
0.000000 -3.579449 0
0.000000 0.000000 0
0.000000 -2.043253 0
0.000000 0.000008 0
-0.031312 3.076827 0
-0.073255 1.640649 0
-0.146616 1.048365 0
-0.262549 0.765110 0
-0.424895 0.542695 0
-0.511759 0.325907 0
-0.606003 0.080713 0
-0.533074 -0.120904 0
-0.453378 -0.272025 0
-0.320780 -0.450652 0
-0.274127 -0.665023 0
-0.084277 -0.954486 0
-0.009961 -1.700447 0
0.081259 -3.323304 0
0.158386 -5.709829 0
0.147181 -8.186972 0
0.000000 -0.000045 0
0.000000 4.662622 0
0.000000 0.000000 0
0.000000 -0.018110 0
0.000000 0.000423 0
-0.173151 0.379914 0
-0.123402 0.177981 0
0.249381 -0.165115 0
0.031834 -0.044472 0
0.075113 0.033685 0
-0.314588 0.058804 0
-0.163162 -0.034099 0
-0.220349 0.037751 0
-0.086398 0.162808 0
-0.390882 0.113239 0
-0.493111 -0.135531 0
-0.447958 -0.128069 0
-0.272476 0.034699 0
-0.137189 -0.028030 0
-0.096321 -0.168447 0
-0.052970 -0.022866 0
-0.076618 0.075353 0
-0.093963 0.002152 0
-0.058065 0.000967 0
-0.058144 -0.001582 0
1.000000 -0.012206 0
0.998535 -0.046178 0
0.999703 -0.091665 0
1.001131 -0.138284 0
1.005679 -0.189116 0
1.011294 -0.250385 0
1.017705 -0.324143 0
1.023899 -0.414203 0
1.028119 -0.527318 0
1.030966 -0.669888 0
1.008109 -0.836773 0
0.973484 -1.038461 0
0.868361 -1.249757 0
0.659992 -1.432107 0
0.372982 -1.569343 0
0.000000 -0.000036 0
0.000000 0.810778 0
0.000000 0.000000 0
0.000000 1.816925 0
0.000000 -0.000097 0
0.176975 -2.765495 0
0.263381 -1.380158 0
0.364076 -0.776449 0
0.322459 -0.500634 0
0.424743 -0.186320 0
0.489818 0.014070 0
0.578832 0.112266 0
0.529042 0.263054 0
0.406195 0.249256 0
0.373785 0.277447 0
0.498251 0.944037 0
0.592128 2.180526 0
0.617224 3.765102 0
0.512215 5.397288 0
0.296502 6.779202 0
0.000000 -0.000034 0
0.000000 -3.687061 0
0.000000 0.000000 0
0.000000 -2.049911 0
0.000000 -0.000046 0
-0.011108 3.094004 0
-0.035380 1.671857 0
-0.092117 1.097195 0
-0.204904 0.856888 0
-0.359398 0.629295 0
-0.457334 0.375073 0
-0.484140 0.088933 0
-0.436050 -0.166934 0
-0.337111 -0.339936 0
-0.214435 -0.508704 0
-0.176874 -0.739587 0
-0.041235 -1.031148 0
0.022675 -1.743778 0
0.082970 -3.364080 0
0.124967 -5.721570 0
0.101099 -8.144190 0
0.000000 -0.000049 0
0.000000 4.625879 0
0.000000 0.000000 0
0.000000 -0.208218 0
0.000000 0.000014 0
0.189292 0.187170 0
0.447628 -0.104276 0
0.224831 -0.020921 0
0.153482 0.053548 0
-0.000444 0.028054 0
0.080605 0.017849 0
0.012891 -0.045993 0
0.043042 0.073030 0
-0.012554 0.268969 0
-0.041383 0.212478 0
-0.154635 -0.015474 0
-0.250978 -0.114323 0
-0.135783 -0.080604 0
0.016362 -0.104722 0
-0.068609 -0.142756 0
-0.304753 0.005646 0
-0.159877 0.081092 0
-0.119024 -0.022867 0
-0.084556 -0.035668 0
-0.084627 -0.001460 0
1.000000 -0.011695 0
0.999120 -0.046099 0
0.998568 -0.091185 0
0.996157 -0.138399 0
0.996738 -0.191159 0
0.997767 -0.252403 0
0.998686 -0.325756 0
0.996705 -0.414594 0
0.993838 -0.526616 0
0.975835 -0.656663 0
0.940615 -0.813542 0
0.868402 -0.986822 0
0.751311 -1.143235 0
0.555525 -1.280619 0
0.305248 -1.377110 0
0.000000 -0.000027 0
0.000000 0.704673 0
0.000000 0.000000 0
0.000000 1.860448 0
0.000000 -0.000106 0
0.111203 -2.829562 0
0.170330 -1.446887 0
0.323883 -0.766344 0
0.249633 -0.470391 0
0.403117 -0.243984 0
0.490073 -0.055596 0
0.477365 0.122556 0
0.315161 0.276854 0
0.401547 0.266900 0
0.115645 0.303150 0
0.288772 0.871507 0
0.415362 2.122595 0
0.458362 3.779538 0
0.392844 5.483191 0
0.228510 6.921001 0
0.000000 -0.000078 0
0.000000 -3.769328 0
0.000000 0.000000 0
0.000000 -2.050472 0
0.000000 -0.000096 0
0.008429 3.099478 0
0.003558 1.692498 0
-0.027929 1.156865 0
-0.112861 0.936173 0
-0.183048 0.704254 0
-0.286248 0.405747 0
-0.289251 0.067095 0
-0.255334 -0.214999 0
-0.167634 -0.413855 0
-0.116024 -0.553200 0
-0.028280 -0.775866 0
0.010720 -1.082193 0
0.061137 -1.779934 0
0.101032 -3.388767 0
0.120007 -5.721427 0
0.085159 -8.106989 0
0.000000 -0.000060 0
0.000000 4.597903 0
0.000000 0.000000 0
0.000000 0.103491 0
0.000000 0.000887 0
0.338989 0.093445 0
0.213414 0.155243 0
0.070827 0.023145 0
0.156075 0.099711 0