# vtk DataFile Version 2.0
generated by CFD-lab course output (written by Tobias Neckel) 
ASCII

DATASET STRUCTURED_GRID
DIMENSIONS  81 26 1 
POINTS 2106 float

0.000000 0.000000 0
0.125000 0.000000 0
0.250000 0.000000 0
0.375000 0.000000 0
0.500000 0.000000 0
0.625000 0.000000 0
0.750000 0.000000 0
0.875000 0.000000 0
1.000000 0.000000 0
1.125000 0.000000 0
1.250000 0.000000 0
1.375000 0.000000 0
1.500000 0.000000 0
1.625000 0.000000 0
1.750000 0.000000 0
1.875000 0.000000 0
2.000000 0.000000 0
2.125000 0.000000 0
2.250000 0.000000 0
2.375000 0.000000 0
2.500000 0.000000 0
2.625000 0.000000 0
2.750000 0.000000 0
2.875000 0.000000 0
3.000000 0.000000 0
3.125000 0.000000 0
3.250000 0.000000 0
3.375000 0.000000 0
3.500000 0.000000 0
3.625000 0.000000 0
3.750000 0.000000 0
3.875000 0.000000 0
4.000000 0.000000 0
4.125000 0.000000 0
4.250000 0.000000 0
4.375000 0.000000 0
4.500000 0.000000 0
4.625000 0.000000 0
4.750000 0.000000 0
4.875000 0.000000 0
5.000000 0.000000 0
5.125000 0.000000 0
5.250000 0.000000 0
5.375000 0.000000 0
5.500000 0.000000 0
5.625000 0.000000 0
5.750000 0.000000 0
5.875000 0.000000 0
6.000000 0.000000 0
6.125000 0.000000 0
6.250000 0.000000 0
6.375000 0.000000 0
6.500000 0.000000 0
6.625000 0.000000 0
6.750000 0.000000 0
6.875000 0.000000 0
7.000000 0.000000 0
7.125000 0.000000 0
7.250000 0.000000 0
7.375000 0.000000 0
7.500000 0.000000 0
7.625000 0.000000 0
7.750000 0.000000 0
7.875000 0.000000 0
8.000000 0.000000 0
8.125000 0.000000 0
8.250000 0.000000 0
8.375000 0.000000 0
8.500000 0.000000 0
8.625000 0.000000 0
8.750000 0.000000 0
8.875000 0.000000 0
9.000000 0.000000 0
9.125000 0.000000 0
9.250000 0.000000 0
9.375000 0.000000 0
9.500000 0.000000 0
9.625000 0.000000 0
9.750000 0.000000 0
9.875000 0.000000 0
10.000000 0.000000 0
0.000000 0.080000 0
0.125000 0.080000 0
0.250000 0.080000 0
0.375000 0.080000 0
0.500000 0.080000 0
0.625000 0.080000 0
0.750000 0.080000 0
0.875000 0.080000 0
1.000000 0.080000 0
1.125000 0.080000 0
1.250000 0.080000 0
1.375000 0.080000 0
1.500000 0.080000 0
1.625000 0.080000 0
1.750000 0.080000 0
1.875000 0.080000 0
2.000000 0.080000 0
2.125000 0.080000 0
2.250000 0.080000 0
2.375000 0.080000 0
2.500000 0.080000 0
2.625000 0.080000 0
2.750000 0.080000 0
2.875000 0.080000 0
3.000000 0.080000 0
3.125000 0.080000 0
3.250000 0.080000 0
3.375000 0.080000 0
3.500000 0.080000 0
3.625000 0.080000 0
3.750000 0.080000 0
3.875000 0.080000 0
4.000000 0.080000 0
4.125000 0.080000 0
4.250000 0.080000 0
4.375000 0.080000 0
4.500000 0.080000 0
4.625000 0.080000 0
4.750000 0.080000 0
4.875000 0.080000 0
5.000000 0.080000 0
5.125000 0.080000 0
5.250000 0.080000 0
5.375000 0.080000 0
5.500000 0.080000 0
5.625000 0.080000 0
5.750000 0.080000 0
5.875000 0.080000 0
6.000000 0.080000 0
6.125000 0.080000 0
6.250000 0.080000 0
6.375000 0.080000 0
6.500000 0.080000 0
6.625000 0.080000 0
6.750000 0.080000 0
6.875000 0.080000 0
7.000000 0.080000 0
7.125000 0.080000 0
7.250000 0.080000 0
7.375000 0.080000 0
7.500000 0.080000 0
7.625000 0.080000 0
7.750000 0.080000 0
7.875000 0.080000 0
8.000000 0.080000 0
8.125000 0.080000 0
8.250000 0.080000 0
8.375000 0.080000 0
8.500000 0.080000 0
8.625000 0.080000 0
8.750000 0.080000 0
8.875000 0.080000 0
9.000000 0.080000 0
9.125000 0.080000 0
9.250000 0.080000 0
9.375000 0.080000 0
9.500000 0.080000 0
9.625000 0.080000 0
9.750000 0.080000 0
9.875000 0.080000 0
10.000000 0.080000 0
0.000000 0.160000 0
0.125000 0.160000 0
0.250000 0.160000 0
0.375000 0.160000 0
0.500000 0.160000 0
0.625000 0.160000 0
0.750000 0.160000 0
0.875000 0.160000 0
1.000000 0.160000 0
1.125000 0.160000 0
1.250000 0.160000 0
1.375000 0.160000 0
1.500000 0.160000 0
1.625000 0.160000 0
1.750000 0.160000 0
1.875000 0.160000 0
2.000000 0.160000 0
2.125000 0.160000 0
2.250000 0.160000 0
2.375000 0.160000 0
2.500000 0.160000 0
2.625000 0.160000 0
2.750000 0.160000 0
2.875000 0.160000 0
3.000000 0.160000 0
3.125000 0.160000 0
3.250000 0.160000 0
3.375000 0.160000 0
3.500000 0.160000 0
3.625000 0.160000 0
3.750000 0.160000 0
3.875000 0.160000 0
4.000000 0.160000 0
4.125000 0.160000 0
4.250000 0.160000 0
4.375000 0.160000 0
4.500000 0.160000 0
4.625000 0.160000 0
4.750000 0.160000 0
4.875000 0.160000 0
5.000000 0.160000 0
5.125000 0.160000 0
5.250000 0.160000 0
5.375000 0.160000 0
5.500000 0.160000 0
5.625000 0.160000 0
5.750000 0.160000 0
5.875000 0.160000 0
6.000000 0.160000 0
6.125000 0.160000 0
6.250000 0.160000 0
6.375000 0.160000 0
6.500000 0.160000 0
6.625000 0.160000 0
6.750000 0.160000 0
6.875000 0.160000 0
7.000000 0.160000 0
7.125000 0.160000 0
7.250000 0.160000 0
7.375000 0.160000 0
7.500000 0.160000 0
7.625000 0.160000 0
7.750000 0.160000 0
7.875000 0.160000 0
8.000000 0.160000 0
8.125000 0.160000 0
8.250000 0.160000 0
8.375000 0.160000 0
8.500000 0.160000 0
8.625000 0.160000 0
8.750000 0.160000 0
8.875000 0.160000 0
9.000000 0.160000 0
9.125000 0.160000 0
9.250000 0.160000 0
9.375000 0.160000 0
9.500000 0.160000 0
9.625000 0.160000 0
9.750000 0.160000 0
9.875000 0.160000 0
10.000000 0.160000 0
0.000000 0.240000 0
0.125000 0.240000 0
0.250000 0.240000 0
0.375000 0.240000 0
0.500000 0.240000 0
0.625000 0.240000 0
0.750000 0.240000 0
0.875000 0.240000 0
1.000000 0.240000 0
1.125000 0.240000 0
1.250000 0.240000 0
1.375000 0.240000 0
1.500000 0.240000 0
1.625000 0.240000 0
1.750000 0.240000 0
1.875000 0.240000 0
2.000000 0.240000 0
2.125000 0.240000 0
2.250000 0.240000 0
2.375000 0.240000 0
2.500000 0.240000 0
2.625000 0.240000 0
2.750000 0.240000 0
2.875000 0.240000 0
3.000000 0.240000 0
3.125000 0.240000 0
3.250000 0.240000 0
3.375000 0.240000 0
3.500000 0.240000 0
3.625000 0.240000 0
3.750000 0.240000 0
3.875000 0.240000 0
4.000000 0.240000 0
4.125000 0.240000 0
4.250000 0.240000 0
4.375000 0.240000 0
4.500000 0.240000 0
4.625000 0.240000 0
4.750000 0.240000 0
4.875000 0.240000 0
5.000000 0.240000 0
5.125000 0.240000 0
5.250000 0.240000 0
5.375000 0.240000 0
5.500000 0.240000 0
5.625000 0.240000 0
5.750000 0.240000 0
5.875000 0.240000 0
6.000000 0.240000 0
6.125000 0.240000 0
6.250000 0.240000 0
6.375000 0.240000 0
6.500000 0.240000 0
6.625000 0.240000 0
6.750000 0.240000 0
6.875000 0.240000 0
7.000000 0.240000 0
7.125000 0.240000 0
7.250000 0.240000 0
7.375000 0.240000 0
7.500000 0.240000 0
7.625000 0.240000 0
7.750000 0.240000 0
7.875000 0.240000 0
8.000000 0.240000 0
8.125000 0.240000 0
8.250000 0.240000 0
8.375000 0.240000 0
8.500000 0.240000 0
8.625000 0.240000 0
8.750000 0.240000 0
8.875000 0.240000 0
9.000000 0.240000 0
9.125000 0.240000 0
9.250000 0.240000 0
9.375000 0.240000 0
9.500000 0.240000 0
9.625000 0.240000 0
9.750000 0.240000 0
9.875000 0.240000 0
10.000000 0.240000 0
0.000000 0.320000 0
0.125000 0.320000 0
0.250000 0.320000 0
0.375000 0.320000 0
0.500000 0.320000 0
0.625000 0.320000 0
0.750000 0.320000 0
0.875000 0.320000 0
1.000000 0.320000 0
1.125000 0.320000 0
1.250000 0.320000 0
1.375000 0.320000 0
1.500000 0.320000 0
1.625000 0.320000 0
1.750000 0.320000 0
1.875000 0.320000 0
2.000000 0.320000 0
2.125000 0.320000 0
2.250000 0.320000 0
2.375000 0.320000 0
2.500000 0.320000 0
2.625000 0.320000 0
2.750000 0.320000 0
2.875000 0.320000 0
3.000000 0.320000 0
3.125000 0.320000 0
3.250000 0.320000 0
3.375000 0.320000 0
3.500000 0.320000 0
3.625000 0.320000 0
3.750000 0.320000 0
3.875000 0.320000 0
4.000000 0.320000 0
4.125000 0.320000 0
4.250000 0.320000 0
4.375000 0.320000 0
4.500000 0.320000 0
4.625000 0.320000 0
4.750000 0.320000 0
4.875000 0.320000 0
5.000000 0.320000 0
5.125000 0.320000 0
5.250000 0.320000 0
5.375000 0.320000 0
5.500000 0.320000 0
5.625000 0.320000 0
5.750000 0.320000 0
5.875000 0.320000 0
6.000000 0.320000 0
6.125000 0.320000 0
6.250000 0.320000 0
6.375000 0.320000 0
6.500000 0.320000 0
6.625000 0.320000 0
6.750000 0.320000 0
6.875000 0.320000 0
7.000000 0.320000 0
7.125000 0.320000 0
7.250000 0.320000 0
7.375000 0.320000 0
7.500000 0.320000 0
7.625000 0.320000 0
7.750000 0.320000 0
7.875000 0.320000 0
8.000000 0.320000 0
8.125000 0.320000 0
8.250000 0.320000 0
8.375000 0.320000 0
8.500000 0.320000 0
8.625000 0.320000 0
8.750000 0.320000 0
8.875000 0.320000 0
9.000000 0.320000 0
9.125000 0.320000 0
9.250000 0.320000 0
9.375000 0.320000 0
9.500000 0.320000 0
9.625000 0.320000 0
9.750000 0.320000 0
9.875000 0.320000 0
10.000000 0.320000 0
0.000000 0.400000 0
0.125000 0.400000 0
0.250000 0.400000 0
0.375000 0.400000 0
0.500000 0.400000 0
0.625000 0.400000 0
0.750000 0.400000 0
0.875000 0.400000 0
1.000000 0.400000 0
1.125000 0.400000 0
1.250000 0.400000 0
1.375000 0.400000 0
1.500000 0.400000 0
1.625000 0.400000 0
1.750000 0.400000 0
1.875000 0.400000 0
2.000000 0.400000 0
2.125000 0.400000 0
2.250000 0.400000 0
2.375000 0.400000 0
2.500000 0.400000 0
2.625000 0.400000 0
2.750000 0.400000 0
2.875000 0.400000 0
3.000000 0.400000 0
3.125000 0.400000 0
3.250000 0.400000 0
3.375000 0.400000 0
3.500000 0.400000 0
3.625000 0.400000 0
3.750000 0.400000 0
3.875000 0.400000 0
4.000000 0.400000 0
4.125000 0.400000 0
4.250000 0.400000 0
4.375000 0.400000 0
4.500000 0.400000 0
4.625000 0.400000 0
4.750000 0.400000 0
4.875000 0.400000 0
5.000000 0.400000 0
5.125000 0.400000 0
5.250000 0.400000 0
5.375000 0.400000 0
5.500000 0.400000 0
5.625000 0.400000 0
5.750000 0.400000 0
5.875000 0.400000 0
6.000000 0.400000 0
6.125000 0.400000 0
6.250000 0.400000 0
6.375000 0.400000 0
6.500000 0.400000 0
6.625000 0.400000 0
6.750000 0.400000 0
6.875000 0.400000 0
7.000000 0.400000 0
7.125000 0.400000 0
7.250000 0.400000 0
7.375000 0.400000 0
7.500000 0.400000 0
7.625000 0.400000 0
7.750000 0.400000 0
7.875000 0.400000 0
8.000000 0.400000 0
8.125000 0.400000 0
8.250000 0.400000 0
8.375000 0.400000 0
8.500000 0.400000 0
8.625000 0.400000 0
8.750000 0.400000 0
8.875000 0.400000 0
9.000000 0.400000 0
9.125000 0.400000 0
9.250000 0.400000 0
9.375000 0.400000 0
9.500000 0.400000 0
9.625000 0.400000 0
9.750000 0.400000 0
9.875000 0.400000 0
10.000000 0.400000 0
0.000000 0.480000 0
0.125000 0.480000 0
0.250000 0.480000 0
0.375000 0.480000 0
0.500000 0.480000 0
[...]
POINT_DATA 2106 

VECTORS velocity float
0.500000 0.000000 0
0.000011 0.000000 0
0.000005 0.000000 0
-0.000028 0.000000 0
-0.000097 0.000000 0
-0.000198 0.000000 0
-0.000321 0.000000 0
-0.000449 0.000000 0
-0.000563 0.000000 0
-0.000657 0.000000 0
-0.001596 0.000000 0
-0.000565 0.000000 0
-0.000000 0.000000 0
0.000039 0.000000 0
-0.000106 0.000000 0
-0.000139 0.000000 0
0.000154 0.000000 0
0.000589 0.000000 0
-0.000128 0.000000 0
-0.001453 0.000000 0
-0.002472 0.000000 0
-0.003551 0.000000 0
-0.005162 0.000000 0
-0.007000 0.000000 0
-0.008292 0.000000 0
-0.007061 0.000000 0
-0.003070 0.000000 0
0.003500 0.000000 0
0.012198 0.000000 0
0.020073 0.000000 0
0.027339 0.000000 0
0.032589 0.000000 0
0.043631 0.000000 0
0.046355 0.000000 0
0.005269 0.000000 0
0.000000 0.000000 0
0.000000 0.000000 0
0.000000 0.000000 0
0.000000 0.000000 0
0.000000 0.000000 0
-0.001130 0.000000 0
-0.002324 0.000000 0
-0.003619 0.000000 0
-0.004991 0.000000 0
-0.006365 0.000000 0
-0.007737 0.000000 0
-0.009029 0.000000 0
-0.010117 0.000000 0
-0.010957 0.000000 0
-0.011426 0.000000 0
-0.010523 0.000000 0
-0.008938 0.000000 0
-0.008144 0.000000 0
-0.006988 0.000000 0
-0.004040 0.000000 0
-0.001435 0.000000 0
0.001574 0.000000 0
0.003133 0.000000 0
0.003500 0.000000 0
0.003267 0.000000 0
0.002585 0.000000 0
0.001190 0.000000 0
-0.001063 0.000000 0
-0.003999 0.000000 0
-0.007915 0.000000 0
-0.011119 0.000000 0
-0.013097 0.000000 0
-0.013717 0.000000 0
-0.011691 0.000000 0
-0.005420 0.000000 0
0.005623 0.000000 0
0.022369 0.000000 0
0.041285 0.000000 0
0.060126 0.000000 0
0.076670 0.000000 0
0.095369 0.000000 0
0.108541 0.000000 0
0.122822 0.000000 0
0.105453 0.000000 0
0.072805 0.000000 0
0.063326 0.000000 0
1.000000 -0.002026 0
1.005121 -0.006592 0
1.018462 -0.012383 0
1.041696 -0.019807 0
1.077646 -0.029241 0
1.129641 -0.040959 0
1.201365 -0.055307 0
1.297598 -0.072102 0
1.420263 -0.092790 0
1.585448 -0.130030 0
1.805788 -0.179672 0
2.117163 -0.235092 0
2.532271 -0.327619 0
3.129718 -0.441220 0
3.927087 -0.649928 0
5.252390 -0.693274 0
6.136088 -0.453273 0
6.595609 -0.252344 0
6.837072 -0.145811 0
6.987370 -0.100530 0
7.112954 -0.089642 0
7.245057 -0.098561 0
7.399390 -0.113217 0
7.579214 -0.121568 0
7.764383 -0.109419 0
7.915742 -0.062908 0
7.977292 0.021184 0
7.887365 0.144347 0
7.579664 0.294645 0
7.046096 0.449032 0
6.220573 0.605991 0
5.155786 0.757926 0
3.889103 0.945798 0
2.431713 1.039846 0
1.053403 0.694899 0
0.000000 0.003379 0
0.000000 -0.182645 0
0.000000 0.000000 0
0.000000 -0.039284 0
0.000000 0.000730 0
-0.128633 0.076903 0
-0.247519 0.067820 0
-0.347720 0.053279 0
-0.420666 0.033110 0
-0.456883 0.007146 0
-0.447635 -0.022212 0
-0.388628 -0.056816 0
-0.272220 -0.100227 0
-0.085854 -0.150761 0
0.180086 -0.203940 0
0.534551 -0.239673 0
0.938384 -0.281996 0
1.419565 -0.360652 0
2.042446 -0.473610 0
2.867839 -0.583078 0
3.879822 -0.801704 0
5.511432 -0.834430 0
6.524706 -0.526899 0
7.031934 -0.269462 0
7.268159 -0.129472 0
7.376756 -0.064475 0
7.435443 -0.043756 0
7.490982 -0.049966 0
7.572197 -0.073438 0
7.698265 -0.107511 0
7.876705 -0.137649 0
8.102290 -0.155958 0
8.347023 -0.159828 0
8.584146 -0.139833 0
8.774703 -0.090702 0
8.875306 -0.011266 0
8.843176 0.094676 0
8.637761 0.214182 0
8.257861 0.330590 0
7.719095 0.430839 0
7.003409 0.509753 0
6.200293 0.575507 0
5.398422 0.583282 0
4.722506 0.435491 0
4.291611 0.201756 0
4.144345 0.086129 0
1.000000 -0.004213 0
1.005509 -0.013356 0
1.018865 -0.024617 0
1.041993 -0.039087 0
1.077609 -0.057494 0
1.128704 -0.080390 0
1.198689 -0.108702 0
1.291874 -0.141304 0
1.411506 -0.185434 0
1.569885 -0.247945 0
1.771866 -0.341507 0
2.057783 -0.466159 0
2.460134 -0.649244 0
3.023957 -0.893891 0
3.843075 -1.359719 0
5.317442 -1.414970 0
6.010949 -0.860870 0
6.313902 -0.449839 0
6.448789 -0.251937 0
6.528597 -0.177774 0
6.607205 -0.166129 0
6.702309 -0.184528 0
6.821215 -0.215069 0
6.972259 -0.234804 0
7.140636 -0.216587 0
7.298416 -0.137472 0
7.400773 0.016952 0
7.390508 0.253273 0
7.200528 0.537203 0
6.735110 0.868609 0
6.014384 1.208589 0
5.020219 1.490932 0
3.842899 1.742197 0
2.669571 1.813639 0
1.492721 1.555087 0
0.000000 0.013905 0
0.000000 -0.659668 0
0.000000 0.000000 0
0.000000 -0.079950 0
0.000000 0.001445 0
-0.134085 0.156880 0
-0.258827 0.139013 0
-0.364715 0.109611 0
-0.442240 0.068661 0
-0.481746 0.016058 0
-0.474531 -0.044886 0
-0.411000 -0.113468 0
-0.296359 -0.194977 0
-0.119097 -0.290678 0
0.126052 -0.398261 0
0.457830 -0.486512 0
0.887851 -0.567610 0
1.349945 -0.707801 0
1.964892 -0.928095 0
2.745440 -1.177120 0
3.787923 -1.693098 0
5.582208 -1.693923 0
6.343127 -0.974318 0
6.648960 -0.477005 0
6.779011 -0.221880 0
6.833932 -0.108255 0
6.860551 -0.074297 0
6.889066 -0.088715 0
6.938629 -0.133853 0
7.021844 -0.196076 0
7.149056 -0.259766 0
7.330798 -0.302193 0
7.549168 -0.309578 0
7.769385 -0.274905 0
7.963837 -0.187532 0
8.099744 -0.045012 0
8.144423 0.150839 0
8.050732 0.373413 0
7.778648 0.586757 0
7.294899 0.801660 0
6.696048 0.970845 0
6.037707 1.026003 0
5.458684 0.944595 0
5.027769 0.707170 0
4.677647 0.368835 0
4.532902 0.180451 0
1.000000 -0.006083 0
1.004688 -0.019398 0
1.016684 -0.036135 0
1.038201 -0.057805 0
1.072237 -0.085137 0
1.121511 -0.118852 0
1.188798 -0.160138 0
1.276906 -0.208707 0
1.393124 -0.271119 0
1.533733 -0.361062 0
1.722445 -0.492329 0
1.976719 -0.675985 0
2.321372 -0.946372 0
2.821766 -1.326705 0
3.597097 -2.118160 0
5.134557 -2.081115 0
5.350558 -1.091410 0
5.357357 -0.532964 0
5.337353 -0.283618 0
5.307325 -0.202318 0
5.282454 -0.201219 0
5.297967 -0.235929 0
5.352601 -0.286386 0
5.471707 -0.326398 0
5.640757 -0.318562 0
5.843954 -0.229797 0
6.013923 -0.038157 0
6.117943 0.272102 0
6.096706 0.713698 0
5.809488 1.207762 0
5.272059 1.703119 0
4.516064 2.147275 0
3.536464 2.449811 0
2.497407 2.543558 0
1.354551 2.403023 0
0.000000 0.028274 0
0.000000 -1.112890 0
0.000000 0.000000 0
0.000000 -0.123176 0
0.000000 0.002124 0
-0.143755 0.241824 0
-0.278109 0.215024 0
-0.393548 0.170264 0
-0.478654 0.107610 0
-0.524236 0.027412 0
-0.521136 -0.067889 0
-0.459294 -0.171245 0
-0.337850 -0.287445 0
-0.162035 -0.421503 0
0.070833 -0.573573 0
0.363940 -0.727623 0
0.783903 -0.853349 0
1.250526 -1.050357 0
1.823300 -1.367126 0
2.506889 -1.750217 0
3.530096 -2.617634 0
5.336190 -2.470158 0
5.556383 -1.210017 0
5.493822 -0.548824 0
5.454550 -0.248250 0
5.428466 -0.117056 0
5.402600 -0.079437 0
5.381883 -0.100331 0
5.372356 -0.158812 0
5.389172 -0.242580 0
5.469925 -0.335775 0
5.629693 -0.412425 0
5.877580 -0.440920 0
6.132596 -0.405617 0
6.364102 -0.302526 0
6.546773 -0.127236 0
6.678860 0.125648 0
6.718484 0.447883 0
6.578948 0.813928 0
6.242990 1.123308 0
5.827073 1.313961 0
5.357982 1.367025 0
4.919680 1.229247 0
4.553421 0.934960 0
4.257064 0.518076 0
4.132141 0.270771 0
1.000000 -0.007745 0
1.004033 -0.024766 0
1.014702 -0.046467 0
1.033756 -0.075043 0
1.064817 -0.111214 0
1.110802 -0.155391 0
1.173666 -0.208557 0
1.254795 -0.272474 0
1.360430 -0.350205 0
1.487287 -0.459112 0
1.646055 -0.625419 0
1.854619 -0.849874 0
2.114065 -1.190476 0
2.497941 -1.710757 0
3.060225 -2.840308 0
4.234480 -2.537587 0
3.764828 -1.003864 0
3.206305 -0.441790 0
2.931444 -0.220318 0
2.750799 -0.143040 0
2.679848 -0.160542 0
2.856922 -0.229824 0
3.163455 -0.326665 0
3.511106 -0.419626 0
3.896176 -0.455227 0
4.243304 -0.376699 0
4.503968 -0.158803 0
4.656120 0.199890 0
4.714243 0.734212 0
4.632393 1.395981 0
4.274761 2.035979 0
3.750357 2.601311 0
2.998440 3.033736 0
2.131191 3.209662 0
1.138273 3.153026 0
0.000000 0.029923 0
0.000000 -1.510362 0
0.000000 0.000000 0
0.000000 -0.170124 0
0.000000 0.002745 0
-0.157053 0.334141 0
-0.305040 0.298481 0
-0.433817 0.237559 0
-0.529576 0.151902 0
-0.585959 0.042847 0
-0.591903 -0.086849 0
-0.536383 -0.231171 0
-0.407264 -0.385622 0
-0.219813 -0.552634 0
0.021482 -0.735285 0
0.301233 -0.943276 0
0.654845 -1.135424 0
1.116837 -1.373413 0
1.594184 -1.732566 0
2.166797 -2.269868 0
3.003146 -3.504250 0
4.339329 -2.991145 0
3.787025 -1.075599 0
3.196881 -0.412228 0
2.928868 -0.180448 0
2.809253 -0.075403 0
2.707105 -0.044880 0
2.763266 -0.069754 0
2.951914 -0.138913 0
3.199853 -0.258916 0
3.505177 -0.414095 0
3.860847 -0.563487 0
4.257685 -0.631831 0
4.637591 -0.586674 0
4.907790 -0.453000 0
5.076798 -0.246852 0
5.182852 0.040549 0
5.226481 0.436961 0
5.150997 0.890678 0
5.015906 1.282465 0
4.768482 1.536855 0
4.472919 1.606340 0
4.161404 1.459119 0
3.861525 1.130848 0
3.621232 0.638059 0
3.527387 0.340461 0
1.000000 -0.009196 0
1.002975 -0.029540 0
1.012451 -0.055560 0
1.028712 -0.090280 0
1.055946 -0.134848 0
1.097439 -0.188917 0
1.154188 -0.252695 0
1.226415 -0.328638 0
1.315456 -0.420316 0
1.426833 -0.544264 0
1.551874 -0.727823 0
1.683315 -0.975913 0
1.860936 -1.358500 0
2.052048 -1.932648 0
2.317208 -3.229947 0
2.038277 -2.532463 0
0.009329 -0.433779 0
0.008125 0.000000 0
-0.000338 0.007504 0
0.513302 -0.041699 0
0.933005 -0.269540 0
1.389232 -0.545838 0
1.924888 -0.705466 0
2.434799 -0.795742 0
2.929092 -0.787570 0
3.390903 -0.619185 0
3.676698 -0.302760 0
3.784485 0.137124 0
3.765941 0.728481 0
3.644107 1.488629 0
3.380181 2.267220 0
2.918410 2.963718 0
2.355141 3.485676 0
1.667010 3.733663 0
0.901669 3.766583 0
0.000000 0.035707 0
0.000000 -1.833751 0
0.000000 0.000000 0
0.000000 -0.222012 0
0.000000 0.003273 0
-0.173946 0.436321 0
-0.339831 0.391753 0
-0.483515 0.313567 0
-0.595408 0.204581 0
-0.669450 0.066902 0
-0.690435 -0.100017 0
-0.641332 -0.289814 0
-0.513382 -0.490449 0
-0.311883 -0.696300 0
-0.053034 -0.907441 0
0.232070 -1.133374 0
0.535863 -1.375734 0
0.934049 -1.651933 0
1.325475 -2.039499 0
1.749708 -2.652351 0
2.188632 -4.008453 0
2.090108 -2.972239 0
-0.003102 -0.479248 0
-0.003713 0.000000 0
-0.003499 -0.000565 0
0.569903 0.024476 0
0.807222 -0.050400 0
1.131986 -0.257404 0
1.550220 -0.438624 0
2.032909 -0.597063 0
2.467578 -0.759206 0
2.875567 -0.894425 0
3.269636 -0.938431 0
3.677633 -0.822079 0
3.976150 -0.584014 0
4.106890 -0.303671 0
4.110800 0.029456 0
4.031616 0.467875 0
3.918532 0.948301 0
3.807978 1.367723 0
3.660817 1.661078 0
3.481578 1.755160 0
3.288719 1.620145 0
3.100846 1.280275 0
2.952429 0.731530 0
2.891007 0.390983 0
1.000000 -0.010181 0
1.000769 -0.033467 0
1.009420 -0.063340 0
1.022746 -0.103282 0
1.045673 -0.155601 0
1.081829 -0.218667 0
1.131169 -0.291504 0
1.192330 -0.376088 0
1.264302 -0.478874 0
1.349801 -0.610822 0
1.440887 -0.789969 0
1.522189 -1.048076 0
1.606678 -1.426867 0
1.625565 -2.003173 0
1.501296 -2.831896 0
0.277619 -0.000758 0
-1.327995 1.653901 0
-0.861463 0.000000 0
-0.647051 0.338193 0
0.000000 0.007029 0
0.665771 -0.718630 0
1.180016 -0.865031 0
1.628418 -0.996229 0
2.049491 -1.062718 0
2.436439 -1.067535 0
2.811668 -0.855569 0
3.040958 -0.411097 0
3.118267 0.142372 0
3.015159 0.823652 0
2.817422 1.642466 0
2.554867 2.500023 0
2.156834 3.256935 0
1.718102 3.834231 0
1.207738 4.139482 0
0.647737 4.219511 0
0.000000 0.039435 0
0.000000 -2.077717 0
0.000000 0.000000 0
0.000000 -0.279996 0
0.000000 0.003669 0
-0.194010 0.550904 0
-0.380801 0.496205 0
-0.541452 0.400729 0
-0.676847 0.270501 0
-0.776401 0.103264 0
-0.817167 -0.105244 0
-0.774645 -0.344884 0
-0.645312 -0.596869 0
-0.436672 -0.847656 0
-0.171125 -1.083814 0
0.124812 -1.320569 0
0.422715 -1.585089 0
0.738732 -1.879164 0
1.054956 -2.254986 0
1.289438 -2.822687 0
1.343705 -3.722504 0
0.306718 -0.009291 0
-1.300448 2.128781 0
-0.854992 0.000000 0
-0.656429 0.181658 0
0.000000 0.007381 0
0.450368 -0.405403 0
0.869585 -0.545668 0
1.240991 -0.715899 0
1.598299 -0.846421 0
1.937687 -0.953792 0
2.252327 -1.077199 0
2.505694 -1.145548 0
2.743154 -1.039239 0
2.976971 -0.728120 0
3.079411 -0.333423 0
3.043416 0.088330 0
2.903513 0.559618 0
2.770823 1.033411 0
2.637134 1.447008 0
2.533383 1.745357 0
2.450178 1.844087 0
2.388445 1.702392 0
2.343307 1.345679 0
2.318170 0.771960 0
2.291777 0.418683 0
1.000000 -0.010219 0
0.999783 -0.036301 0
1.004523 -0.070027 0
1.016121 -0.113884 0
1.034584 -0.173063 0
1.064385 -0.244036 0
1.105074 -0.323817 0
1.153561 -0.414245 0
1.207618 -0.521499 0
1.264365 -0.657680 0
1.322832 -0.838553 0
1.368711 -1.082421 0
1.372109 -1.425063 0
1.294559 -1.865606 0
0.896240 -2.367663 0
0.000000 -0.000770 0
0.000000 1.314961 0
0.000000 0.000000 0
0.000000 0.482823 0
0.000000 0.010069 0
0.403237 -1.022408 0
0.793693 -1.162334 0
1.155595 -1.262332 0
1.489527 -1.313277 0
1.786133 -1.275765 0
1.985667 -1.006479 0
2.197951 -0.499385 0
2.269325 0.153234 0
2.160885 0.920620 0
1.966880 1.782814 0
1.753577 2.689594 0
1.465951 3.498846 0
1.122607 4.092696 0
0.792979 4.418295 0
0.407660 4.539134 0
0.000000 0.045667 0
0.000000 -2.238142 0
0.000000 0.000000 0
0.000000 -0.345064 0
0.000000 0.003859 0
-0.216038 0.679305 0
-0.425389 0.613716 0
-0.607861 0.502636 0
-0.773687 0.354549 0
-0.904490 0.156307 0
-0.968019 -0.101540 0
-0.935993 -0.400201 0
-0.797861 -0.707151 0
-0.570434 -1.000179 0
-0.305006 -1.267190 0
0.006719 -1.513831 0
0.304077 -1.769042 0
0.568427 -2.056966 0
0.797307 -2.392350 0
0.914503 -2.837550 0
0.765539 -3.379911 0
0.000000 -0.011689 0
0.000000 1.817830 0
0.000000 0.000000 0
0.000000 0.273394 0
0.000000 0.009444 0
0.284764 -0.607887 0
0.542140 -0.763798 0
0.801376 -0.905396 0
1.036256 -1.043344 0
1.296727 -1.178179 0
1.526940 -1.258345 0
1.685674 -1.252955 0
1.774216 -1.124092 0
1.851682 -0.799614 0
1.885558 -0.346591 0
1.836029 0.141636 0
1.732270 0.641940 0
1.627685 1.118389 0
1.528478 1.519289 0
1.490550 1.780335 0
1.521112 1.847526 0
1.598013 1.688147 0
1.689929 1.324856 0
1.765181 0.764114 0
1.769233 0.423991 0
1.000000 -0.010573 0
1.001082 -0.037094 0
0.999671 -0.074198 0
1.007472 -0.122923 0
1.022805 -0.186892 0
1.046498 -0.264182 0
1.077847 -0.348978 0
1.112568 -0.442117 0
1.148058 -0.550190 0
1.181231 -0.684960 0
1.208391 -0.857152 0
1.206260 -1.080015 0
1.165671 -1.379812 0
1.006621 -1.699019 0
0.642183 -2.003780 0
0.000000 -0.001265 0
0.000000 1.080001 0
0.000000 0.000000 0
0.000000 0.599844 0
0.000000 0.010076 0
0.282268 -1.227326 0
0.503757 -1.346942 0
0.723018 -1.441965 0
0.928180 -1.466664 0
1.086901 -1.385467 0
1.185390 -1.119534 0
1.326756 -0.593040 0
1.358063 0.165693 0
1.299272 1.016816 0
1.137554 1.902742 0
0.962854 2.820216 0
0.795687 3.660354 0
0.601394 4.264531 0
0.411296 4.596647 0
0.203162 4.726616 0
0.000000 0.049899 0
0.000000 -2.327954 0
0.000000 0.000000 0
0.000000 -0.417715 0
0.000000 0.003685 0
-0.243279 0.822424 0
-0.469064 0.746572 0
-0.685015 0.623240 0
-0.883748 0.459944 0
-1.044578 0.227237 0
-1.129619 -0.085482 0
-1.109483 -0.454185 0
-0.969043 -0.831226 0
-0.724428 -1.163483 0
-0.432366 -1.453591 0
-0.112650 -1.710781 0
0.185252 -1.944981 0
0.424357 -2.195230 0
0.585562 -2.476874 0
0.638730 -2.802755 0
0.467395 -3.137622 0
0.000000 -0.012620 0
0.000000 1.635707 0
0.000000 0.000000 0
0.000000 0.366820 0
0.000000 0.009771 0
0.211736 -0.753093 0
0.358339 -0.876695 0
0.497083 -1.032529 0
0.631880 -1.163840 0
0.732117 -1.268224 0
0.792861 -1.326521 0
0.831811 -1.304199 0
0.831030 -1.145879 0
0.783598 -0.799774 0
0.757725 -0.323800 0
0.698357 0.186039 0
0.644747 0.692563 0
0.607386 1.163444 0
0.607682 1.534379 0
0.662221 1.749676 0
0.800029 1.774916 0
0.991909 1.593954 0
1.182825 1.238297 0
1.327197 0.720811 0
1.349876 0.413902 0
1.000000 -0.011443 0
1.000985 -0.036824 0
0.999661 -0.074518 0
0.999229 -0.129092 0
1.009292 -0.198441 0
1.029327 -0.279665 0
1.051947 -0.366504 0
1.071717 -0.459582 0
1.089957 -0.565845 0
1.103756 -0.696695 0
1.107762 -0.854973 0
1.072920 -1.055483 0
0.999943 -1.297695 0
0.795000 -1.530975 0
0.476987 -1.723828 0
0.000000 0.000200 0
0.000000 0.905134 0
0.000000 0.000000 0
0.000000 0.662935 0
0.000000 0.008997 0
0.139935 -1.345545 0
0.249920 -1.444815 0
0.332712 -1.534364 0
0.416512 -1.546564 0
0.451967 -1.440781 0
0.468314 -1.160389 0
0.472060 -0.610298 0
0.477198 0.170422 0
0.455739 1.061345 0
0.379038 1.997720 0
0.242051 2.907987 0
0.192497 3.729778 0
0.138450 4.338305 0
0.094338 4.672762 0
0.041249 4.801961 0
0.000000 0.051692 0
0.000000 -2.361940 0
0.000000 0.000000 0
0.000000 -0.500722 0
0.000000 0.003370 0
-0.262056 0.978777 0
-0.506518 0.896027 0
-0.757599 0.767634 0
-1.004337 0.584270 0
-1.180685 0.313265 0
-1.273651 -0.060400 0
-1.251123 -0.503370 0
-1.104244 -0.953986 0
-0.859312 -1.344051 0
-0.537293 -1.659128 0
-0.212402 -1.909506 0
0.077161 -2.113126 0
0.297963 -2.313564 0
0.428042 -2.529948 0
0.445922 -2.762322 0
0.308631 -2.971524 0
0.000000 -0.013333 0
0.000000 1.517253 0
0.000000 0.000000 0
0.000000 0.410235 0
0.000000 0.010251 0
0.100291 -0.837945 0
0.186014 -0.946816 0
0.225313 -1.080858 0
0.242089 -1.194161 0
0.228586 -1.281602 0
0.185086 -1.322544 0
0.111900 -1.277779 0
0.004784 -1.093631 0
-0.115524 -0.753094 0
-0.186416 -0.292431 0
-0.220668 0.213547 0
-0.224565 0.699766 0
-0.189310 1.141715 0
-0.091660 1.483800 0
0.060174 1.656838 0
0.295205 1.636130 0
0.564498 1.442763 0
0.816615 1.109877 0
0.975531 0.656807 0
1.009335 0.396032 0
1.000000 -0.011735 0
0.999451 -0.037609 0
1.000127 -0.073477 0
0.997339 -0.129489 0
0.997187 -0.206556 0
1.009359 -0.291883 0
1.027338 -0.376510 0
1.033310 -0.466845 0
1.036869 -0.571097 0
1.038510 -0.696757 0
1.015646 -0.837819 0
0.971651 -1.011412 0
0.861370 -1.202345 0
0.650905 -1.364729 0
0.361035 -1.495382 0
0.000000 -0.000223 0
0.000000 0.775972 0
0.000000 0.000000 0
0.000000 0.687361 0
0.000000 0.007504 0
0.031882 -1.388008 0
0.037565 -1.470721 0
0.015157 -1.548985 0
-0.020365 -1.543389 0
-0.092367 -1.419022 0
-0.163706 -1.132796 0
-0.273714 -0.599127 0
-0.296860 0.175737 0
-0.297246 1.079236 0
-0.294519 2.039101 0
-0.324553 2.939200 0
-0.295468 3.726257 0
-0.233995 4.326952 0
-0.152352 4.658454 0
-0.079971 4.786591 0
0.000000 0.052143 0
0.000000 -2.351909 0
0.000000 0.000000 0
0.000000 -0.585906 0
0.000000 0.002680 0
-0.274857 1.145867 0
-0.550979 1.063320 0
-0.835342 0.941444 0
-1.081294 0.730320 0
-1.280750 0.399198 0
-1.372820 -0.040802 0
-1.336672 -0.563005 0
-1.168431 -1.082385 0
-0.919281 -1.526731 0
-0.591039 -1.868013 0
-0.280411 -2.104432 0
-0.000383 -2.272014 0
0.206349 -2.420194 0
0.318695 -2.571967 0
0.326986 -2.726732 0
0.214476 -2.852631 0
0.000000 -0.014861 0
0.000000 1.436142 0
0.000000 0.000000 0
0.000000 0.431403 0
0.000000 0.009645 0
0.036544 -0.872864 0
0.046341 -0.957104 0
0.007014 -1.068812 0
-0.055333 -1.166330 0
-0.146426 -1.232138 0
-0.279162 -1.252237 0
-0.439344 -1.189201 0
-0.629490 -1.000723 0
-0.771188 -0.677801 0
-0.861832 -0.256903 0
-0.876547 0.210060 0
-0.839539 0.672099 0
-0.738366 1.077989 0
-0.573581 1.374314 0
-0.327963 1.501687 0
-0.028397 1.451754 0
0.272297 1.259857 0
0.526331 0.974841 0
0.686036 0.597075 0
0.727096 0.371753 0
1.000000 -0.011624 0
0.998602 -0.037637 0
0.998521 -0.073568 0
0.995637 -0.127611 0
0.993769 -0.206536 0
0.995622 -0.299363 0
1.000516 -0.382235 0
1.000757 -0.466083 0
0.995951 -0.569575 0
0.979982 -0.683514 0
0.926245 -0.812586 0
0.873774 -0.957148 0
0.745907 -1.092820 0
0.539763 -1.211163 0
0.291724 -1.307650 0
0.000000 -0.000271 0
0.000000 0.673802 0
0.000000 0.000000 0
0.000000 0.680613 0
0.000000 0.005739 0
-0.051726 -1.370319 0
-0.124952 -1.434513 0
-0.235491 -1.497691 0
-0.361018 -1.478150 0
-0.511069 -1.349444 0
-0.670580 -1.044728 0
-0.825957 -0.525482 0
-0.901479 0.185081 0
-0.895948 1.059445 0
-0.842567 2.014795 0
-0.769552 2.908193 0
-0.653108 3.671419 0
-0.499577 4.246309 0
-0.323166 4.573785 0
-0.158983 4.704055 0
0.000000 0.050818 0
0.000000 -2.311432 0
0.000000 0.000000 0
0.000000 -0.678395 0
0.000000 0.001077 0
-0.284130 1.330674 0
-0.578637 1.254337 0
-0.882851 1.106636 0
-1.102013 0.868931 0
-1.308282 0.499442 0
-1.392781 -0.025010 0
-1.340186 -0.634578 0
-1.160327 -1.221515 0
-0.893930 -1.713982 0
-0.595638 -2.068404 0
-0.301042 -2.287926 0
-0.031296 -2.425052 0
0.160440 -2.518173 0
0.257642 -2.607555 0
0.258505 -2.696021 0
0.162789 -2.762652 0
0.000000 -0.016216 0
0.000000 1.377304 0
0.000000 0.000000 0
0.000000 0.432694 0
0.000000 0.008800 0
-0.014342 -0.868325 0
-0.054096 -0.928313 0
-0.142096 -1.016181 0
-0.259126 -1.096354 0
-0.403240 -1.138747 0
-0.580807 -1.135472 0
-0.802120 -1.053964 0