# vtk DataFile Version 2.0
generated by CFD-lab course output (written by Tobias Neckel) 
ASCII

DATASET STRUCTURED_GRID
DIMENSIONS  81 26 1 
POINTS 2106 float

0.000000 0.000000 0
0.125000 0.000000 0
0.250000 0.000000 0
0.375000 0.000000 0
0.500000 0.000000 0
0.625000 0.000000 0
0.750000 0.000000 0
0.875000 0.000000 0
1.000000 0.000000 0
1.125000 0.000000 0
1.250000 0.000000 0
1.375000 0.000000 0
1.500000 0.000000 0
1.625000 0.000000 0
1.750000 0.000000 0
1.875000 0.000000 0
2.000000 0.000000 0
2.125000 0.000000 0
2.250000 0.000000 0
2.375000 0.000000 0
2.500000 0.000000 0
2.625000 0.000000 0
2.750000 0.000000 0
2.875000 0.000000 0
3.000000 0.000000 0
3.125000 0.000000 0
3.250000 0.000000 0
3.375000 0.000000 0
3.500000 0.000000 0
3.625000 0.000000 0
3.750000 0.000000 0
3.875000 0.000000 0
4.000000 0.000000 0
4.125000 0.000000 0
4.250000 0.000000 0
4.375000 0.000000 0
4.500000 0.000000 0
4.625000 0.000000 0
4.750000 0.000000 0
4.875000 0.000000 0
5.000000 0.000000 0
5.125000 0.000000 0
5.250000 0.000000 0
5.375000 0.000000 0
5.500000 0.000000 0
5.625000 0.000000 0
5.750000 0.000000 0
5.875000 0.000000 0
6.000000 0.000000 0
6.125000 0.000000 0
6.250000 0.000000 0
6.375000 0.000000 0
6.500000 0.000000 0
6.625000 0.000000 0
6.750000 0.000000 0
6.875000 0.000000 0
7.000000 0.000000 0
7.125000 0.000000 0
7.250000 0.000000 0
7.375000 0.000000 0
7.500000 0.000000 0
7.625000 0.000000 0
7.750000 0.000000 0
7.875000 0.000000 0
8.000000 0.000000 0
8.125000 0.000000 0
8.250000 0.000000 0
8.375000 0.000000 0
8.500000 0.000000 0
8.625000 0.000000 0
8.750000 0.000000 0
8.875000 0.000000 0
9.000000 0.000000 0
9.125000 0.000000 0
9.250000 0.000000 0
9.375000 0.000000 0
9.500000 0.000000 0
9.625000 0.000000 0
9.750000 0.000000 0
9.875000 0.000000 0
10.000000 0.000000 0
0.000000 0.080000 0
0.125000 0.080000 0
0.250000 0.080000 0
0.375000 0.080000 0
0.500000 0.080000 0
0.625000 0.080000 0
0.750000 0.080000 0
0.875000 0.080000 0
1.000000 0.080000 0
1.125000 0.080000 0
1.250000 0.080000 0
1.375000 0.080000 0
1.500000 0.080000 0
1.625000 0.080000 0
1.750000 0.080000 0
1.875000 0.080000 0
2.000000 0.080000 0
2.125000 0.080000 0
2.250000 0.080000 0
2.375000 0.080000 0
2.500000 0.080000 0
2.625000 0.080000 0
2.750000 0.080000 0
2.875000 0.080000 0
3.000000 0.080000 0
3.125000 0.080000 0
3.250000 0.080000 0
3.375000 0.080000 0
3.500000 0.080000 0
3.625000 0.080000 0
3.750000 0.080000 0
3.875000 0.080000 0
4.000000 0.080000 0
4.125000 0.080000 0
4.250000 0.080000 0
4.375000 0.080000 0
4.500000 0.080000 0
4.625000 0.080000 0
4.750000 0.080000 0
4.875000 0.080000 0
5.000000 0.080000 0
5.125000 0.080000 0
5.250000 0.080000 0
5.375000 0.080000 0
5.500000 0.080000 0
5.625000 0.080000 0
5.750000 0.080000 0
5.875000 0.080000 0
6.000000 0.080000 0
6.125000 0.080000 0
6.250000 0.080000 0
6.375000 0.080000 0
6.500000 0.080000 0
6.625000 0.080000 0
6.750000 0.080000 0
6.875000 0.080000 0
7.000000 0.080000 0
7.125000 0.080000 0
7.250000 0.080000 0
7.375000 0.080000 0
7.500000 0.080000 0
7.625000 0.080000 0
7.750000 0.080000 0
7.875000 0.080000 0
8.000000 0.080000 0
8.125000 0.080000 0
8.250000 0.080000 0
8.375000 0.080000 0
8.500000 0.080000 0
8.625000 0.080000 0
8.750000 0.080000 0
8.875000 0.080000 0
9.000000 0.080000 0
9.125000 0.080000 0
9.250000 0.080000 0
9.375000 0.080000 0
9.500000 0.080000 0
9.625000 0.080000 0
9.750000 0.080000 0
9.875000 0.080000 0
10.000000 0.080000 0
0.000000 0.160000 0
0.125000 0.160000 0
0.250000 0.160000 0
0.375000 0.160000 0
0.500000 0.160000 0
0.625000 0.160000 0
0.750000 0.160000 0
0.875000 0.160000 0
1.000000 0.160000 0
1.125000 0.160000 0
1.250000 0.160000 0
1.375000 0.160000 0
1.500000 0.160000 0
1.625000 0.160000 0
1.750000 0.160000 0
1.875000 0.160000 0
2.000000 0.160000 0
2.125000 0.160000 0
2.250000 0.160000 0
2.375000 0.160000 0
2.500000 0.160000 0
2.625000 0.160000 0
2.750000 0.160000 0
2.875000 0.160000 0
3.000000 0.160000 0
3.125000 0.160000 0
3.250000 0.160000 0
3.375000 0.160000 0
3.500000 0.160000 0
3.625000 0.160000 0
3.750000 0.160000 0
3.875000 0.160000 0
4.000000 0.160000 0
4.125000 0.160000 0
4.250000 0.160000 0
4.375000 0.160000 0
4.500000 0.160000 0
4.625000 0.160000 0
4.750000 0.160000 0
4.875000 0.160000 0
5.000000 0.160000 0
5.125000 0.160000 0
5.250000 0.160000 0
5.375000 0.160000 0
5.500000 0.160000 0
5.625000 0.160000 0
5.750000 0.160000 0
5.875000 0.160000 0
6.000000 0.160000 0
6.125000 0.160000 0
6.250000 0.160000 0
6.375000 0.160000 0
6.500000 0.160000 0
6.625000 0.160000 0
6.750000 0.160000 0
6.875000 0.160000 0
7.000000 0.160000 0
7.125000 0.160000 0
7.250000 0.160000 0
7.375000 0.160000 0
7.500000 0.160000 0
7.625000 0.160000 0
7.750000 0.160000 0
7.875000 0.160000 0
8.000000 0.160000 0
8.125000 0.160000 0
8.250000 0.160000 0
8.375000 0.160000 0
8.500000 0.160000 0
8.625000 0.160000 0
8.750000 0.160000 0
8.875000 0.160000 0
9.000000 0.160000 0
9.125000 0.160000 0
9.250000 0.160000 0
9.375000 0.160000 0
9.500000 0.160000 0
9.625000 0.160000 0
9.750000 0.160000 0
9.875000 0.160000 0
10.000000 0.160000 0
0.000000 0.240000 0
0.125000 0.240000 0
0.250000 0.240000 0
0.375000 0.240000 0
0.500000 0.240000 0
0.625000 0.240000 0
0.750000 0.240000 0
0.875000 0.240000 0
1.000000 0.240000 0
1.125000 0.240000 0
1.250000 0.240000 0
1.375000 0.240000 0
1.500000 0.240000 0
1.625000 0.240000 0
1.750000 0.240000 0
1.875000 0.240000 0
2.000000 0.240000 0
2.125000 0.240000 0
2.250000 0.240000 0
2.375000 0.240000 0
2.500000 0.240000 0
2.625000 0.240000 0
2.750000 0.240000 0
2.875000 0.240000 0
3.000000 0.240000 0
3.125000 0.240000 0
3.250000 0.240000 0
3.375000 0.240000 0
3.500000 0.240000 0
3.625000 0.240000 0
3.750000 0.240000 0
3.875000 0.240000 0
4.000000 0.240000 0
4.125000 0.240000 0
4.250000 0.240000 0
4.375000 0.240000 0
4.500000 0.240000 0
4.625000 0.240000 0
4.750000 0.240000 0
4.875000 0.240000 0
5.000000 0.240000 0
5.125000 0.240000 0
5.250000 0.240000 0
5.375000 0.240000 0
5.500000 0.240000 0
5.625000 0.240000 0
5.750000 0.240000 0
5.875000 0.240000 0
6.000000 0.240000 0
6.125000 0.240000 0
6.250000 0.240000 0
6.375000 0.240000 0
6.500000 0.240000 0
6.625000 0.240000 0
6.750000 0.240000 0
6.875000 0.240000 0
7.000000 0.240000 0
7.125000 0.240000 0
7.250000 0.240000 0
7.375000 0.240000 0
7.500000 0.240000 0
7.625000 0.240000 0
7.750000 0.240000 0
7.875000 0.240000 0
8.000000 0.240000 0
8.125000 0.240000 0
8.250000 0.240000 0
8.375000 0.240000 0
8.500000 0.240000 0
8.625000 0.240000 0
8.750000 0.240000 0
8.875000 0.240000 0
9.000000 0.240000 0
9.125000 0.240000 0
9.250000 0.240000 0
9.375000 0.240000 0
9.500000 0.240000 0
9.625000 0.240000 0
9.750000 0.240000 0
9.875000 0.240000 0
10.000000 0.240000 0
0.000000 0.320000 0
0.125000 0.320000 0
0.250000 0.320000 0
0.375000 0.320000 0
0.500000 0.320000 0
0.625000 0.320000 0
0.750000 0.320000 0
0.875000 0.320000 0
1.000000 0.320000 0
1.125000 0.320000 0
1.250000 0.320000 0
1.375000 0.320000 0
1.500000 0.320000 0
1.625000 0.320000 0
1.750000 0.320000 0
1.875000 0.320000 0
2.000000 0.320000 0
2.125000 0.320000 0
2.250000 0.320000 0
2.375000 0.320000 0
2.500000 0.320000 0
2.625000 0.320000 0
2.750000 0.320000 0
2.875000 0.320000 0
3.000000 0.320000 0
3.125000 0.320000 0
3.250000 0.320000 0
3.375000 0.320000 0
3.500000 0.320000 0
3.625000 0.320000 0
3.750000 0.320000 0
3.875000 0.320000 0
4.000000 0.320000 0
4.125000 0.320000 0
4.250000 0.320000 0
4.375000 0.320000 0
4.500000 0.320000 0
4.625000 0.320000 0
4.750000 0.320000 0
4.875000 0.320000 0
5.000000 0.320000 0
5.125000 0.320000 0
5.250000 0.320000 0
5.375000 0.320000 0
5.500000 0.320000 0
5.625000 0.320000 0
5.750000 0.320000 0
5.875000 0.320000 0
6.000000 0.320000 0
6.125000 0.320000 0
6.250000 0.320000 0
6.375000 0.320000 0
6.500000 0.320000 0
6.625000 0.320000 0
6.750000 0.320000 0
6.875000 0.320000 0
7.000000 0.320000 0
7.125000 0.320000 0
7.250000 0.320000 0
7.375000 0.320000 0
7.500000 0.320000 0
7.625000 0.320000 0
7.750000 0.320000 0
7.875000 0.320000 0
8.000000 0.320000 0
8.125000 0.320000 0
8.250000 0.320000 0
8.375000 0.320000 0
8.500000 0.320000 0
8.625000 0.320000 0
8.750000 0.320000 0
8.875000 0.320000 0
9.000000 0.320000 0
9.125000 0.320000 0
9.250000 0.320000 0
9.375000 0.320000 0
9.500000 0.320000 0
9.625000 0.320000 0
9.750000 0.320000 0
9.875000 0.320000 0
10.000000 0.320000 0
0.000000 0.400000 0
0.125000 0.400000 0
0.250000 0.400000 0
0.375000 0.400000 0
0.500000 0.400000 0
0.625000 0.400000 0
0.750000 0.400000 0
0.875000 0.400000 0
1.000000 0.400000 0
1.125000 0.400000 0
1.250000 0.400000 0
1.375000 0.400000 0
1.500000 0.400000 0
1.625000 0.400000 0
1.750000 0.400000 0
1.875000 0.400000 0
2.000000 0.400000 0
2.125000 0.400000 0
2.250000 0.400000 0
2.375000 0.400000 0
2.500000 0.400000 0
2.625000 0.400000 0
2.750000 0.400000 0
2.875000 0.400000 0
3.000000 0.400000 0
3.125000 0.400000 0
3.250000 0.400000 0
3.375000 0.400000 0
3.500000 0.400000 0
3.625000 0.400000 0
3.750000 0.400000 0
3.875000 0.400000 0
4.000000 0.400000 0
4.125000 0.400000 0
4.250000 0.400000 0
4.375000 0.400000 0
4.500000 0.400000 0
4.625000 0.400000 0
4.750000 0.400000 0
4.875000 0.400000 0
5.000000 0.400000 0
5.125000 0.400000 0
5.250000 0.400000 0
5.375000 0.400000 0
5.500000 0.400000 0
5.625000 0.400000 0
5.750000 0.400000 0
5.875000 0.400000 0
6.000000 0.400000 0
6.125000 0.400000 0
6.250000 0.400000 0
6.375000 0.400000 0
6.500000 0.400000 0
6.625000 0.400000 0
6.750000 0.400000 0
6.875000 0.400000 0
7.000000 0.400000 0
7.125000 0.400000 0
7.250000 0.400000 0
7.375000 0.400000 0
7.500000 0.400000 0
7.625000 0.400000 0
7.750000 0.400000 0
7.875000 0.400000 0
8.000000 0.400000 0
8.125000 0.400000 0
8.250000 0.400000 0
8.375000 0.400000 0
8.500000 0.400000 0
8.625000 0.400000 0
8.750000 0.400000 0
8.875000 0.400000 0
9.000000 0.400000 0
9.125000 0.400000 0
9.250000 0.400000 0
9.375000 0.400000 0
9.500000 0.400000 0
9.625000 0.400000 0
9.750000 0.400000 0
9.875000 0.400000 0
10.000000 0.400000 0
0.000000 0.480000 0
0.125000 0.480000 0
0.250000 0.480000 0
0.375000 0.480000 0
0.500000 0.480000 0
[...]
POINT_DATA 2106 

VECTORS velocity float
0.500000 0.000000 0
-0.000002 0.000000 0
-0.000003 0.000000 0
-0.000005 0.000000 0
-0.000006 0.000000 0
-0.000007 0.000000 0
-0.000008 0.000000 0
-0.000010 0.000000 0
-0.000012 0.000000 0
-0.000015 0.000000 0
-0.000020 0.000000 0
-0.000027 0.000000 0
-0.000037 0.000000 0
-0.000047 0.000000 0
-0.000046 0.000000 0
0.000035 0.000000 0
-0.000017 0.000000 0
-0.000337 0.000000 0
-0.000198 0.000000 0
0.000105 0.000000 0
0.000171 0.000000 0
0.000133 0.000000 0
0.000158 0.000000 0
0.000222 0.000000 0
0.000246 0.000000 0
0.000217 0.000000 0
0.000172 0.000000 0
0.000160 0.000000 0
0.000283 0.000000 0
0.001103 0.000000 0
-0.000672 0.000000 0
-0.000640 0.000000 0
-0.000082 0.000000 0
-0.000631 0.000000 0
-0.000262 0.000000 0
0.000000 0.000000 0
0.000000 0.000000 0
0.000000 0.000000 0
0.000000 0.000000 0
0.000000 0.000000 0
0.000417 0.000000 0
0.000402 0.000000 0
0.000548 0.000000 0
0.000615 0.000000 0
0.000604 0.000000 0
0.000543 0.000000 0
0.000476 0.000000 0
0.000379 0.000000 0
0.000184 0.000000 0
-0.000213 0.000000 0
-0.000864 0.000000 0
-0.001527 0.000000 0
-0.001594 0.000000 0
-0.000830 0.000000 0
0.000923 0.000000 0
-0.000403 0.000000 0
0.000060 0.000000 0
0.000399 0.000000 0
0.000436 0.000000 0
0.000357 0.000000 0
0.000307 0.000000 0
0.000322 0.000000 0
0.000330 0.000000 0
0.000278 0.000000 0
0.000183 0.000000 0
0.000098 0.000000 0
0.000059 0.000000 0
0.000066 0.000000 0
0.000093 0.000000 0
0.000111 0.000000 0
0.000096 0.000000 0
0.000039 0.000000 0
-0.000053 0.000000 0
-0.000168 0.000000 0
-0.000294 0.000000 0
-0.000418 0.000000 0
-0.000522 0.000000 0
-0.000590 0.000000 0
-0.000616 0.000000 0
-0.000610 0.000000 0
-0.000608 0.000000 0
1.000000 -0.001823 0
1.007182 -0.006230 0
1.022558 -0.011896 0
1.047429 -0.018641 0
1.083511 -0.026765 0
1.133201 -0.036737 0
1.199735 -0.049381 0
1.287953 -0.064574 0
1.401405 -0.086714 0
1.556396 -0.117898 0
1.766783 -0.169579 0
2.075641 -0.237670 0
2.495853 -0.336318 0
3.111045 -0.452846 0
3.927935 -0.660885 0
5.276043 -0.700874 0
6.154675 -0.469399 0
6.656711 -0.292754 0
6.980295 -0.206100 0
7.242415 -0.174496 0
7.498686 -0.152922 0
7.709358 -0.118669 0
7.859154 -0.080740 0
7.951765 -0.045937 0
7.997900 -0.015507 0
8.005055 0.012900 0
7.970666 0.049782 0
7.874947 0.108678 0
7.676612 0.198128 0
7.312015 0.326265 0
6.742640 0.474587 0
5.891366 0.634176 0
4.751931 0.841751 0
3.342351 0.999592 0
1.703580 1.024070 0
0.000000 -0.000167 0
0.000000 -0.506171 0
0.000000 0.000000 0
0.000000 -0.859209 0
0.000000 -0.000264 0
-2.111245 1.275288 0
-3.097812 0.573521 0
-3.470275 0.231296 0
-3.719088 0.115028 0
-3.845199 0.063889 0
-3.920781 0.034902 0
-3.958220 0.014289 0
-3.960410 -0.004988 0
-3.923924 -0.024135 0
-3.849566 -0.041890 0
-3.743969 -0.061015 0
-3.599140 -0.094747 0
-3.382932 -0.191945 0
-2.930163 -0.496813 0
-1.801130 -1.316580 0
1.168912 -2.877366 0
6.007969 -2.871311 0
8.476481 -1.361219 0
9.569447 -0.559041 0
9.922231 -0.183085 0
9.996049 -0.047031 0
10.012481 -0.008951 0
10.012658 0.001278 0
10.009376 0.003504 0
10.006194 0.003339 0
10.004653 0.002611 0
10.004404 0.001975 0
10.005127 0.001479 0
10.006519 0.001148 0
10.008311 0.001228 0
10.009458 0.002018 0
10.008352 0.003147 0
10.004982 0.003610 0
10.001370 0.002781 0
9.999924 0.001034 0
10.001473 -0.000620 0
10.005018 -0.001321 0
10.008371 -0.001030 0
10.010328 -0.000520 0
10.011309 -0.000553 0
10.012146 -0.000771 0
1.000000 -0.004581 0
1.008233 -0.014412 0
1.024694 -0.025738 0
1.050341 -0.038990 0
1.086674 -0.054874 0
1.135886 -0.074363 0
1.201119 -0.099021 0
1.286619 -0.129049 0
1.398209 -0.171783 0
1.544585 -0.233822 0
1.750752 -0.332297 0
2.030325 -0.466585 0
2.435983 -0.662639 0
3.017593 -0.916513 0
3.863167 -1.385579 0
5.373223 -1.425094 0
6.032147 -0.883608 0
6.356890 -0.528377 0
6.553068 -0.374831 0
6.738206 -0.331751 0
6.972624 -0.298824 0
7.162296 -0.230680 0
7.289945 -0.155121 0
7.365005 -0.088777 0
7.404805 -0.034086 0
7.419359 0.017449 0
7.408105 0.083288 0
7.363496 0.188214 0
7.254750 0.360296 0
7.010598 0.597761 0
6.535342 0.909235 0
5.783035 1.274073 0
4.704843 1.631389 0
3.410730 1.950964 0
1.811105 2.139124 0
0.000000 0.000248 0
0.000000 -1.090053 0
0.000000 0.000000 0
0.000000 -1.351499 0
0.000000 -0.000289 0
-1.179039 1.982622 0
-1.696395 0.869797 0
-2.100108 0.397634 0
-2.315059 0.239968 0
-2.437859 0.129100 0
-2.521122 0.072351 0
-2.573858 0.025380 0
-2.581736 -0.021933 0
-2.533225 -0.070923 0
-2.424100 -0.115154 0
-2.246952 -0.160256 0
-2.033306 -0.231047 0
-1.773492 -0.428129 0
-1.381414 -1.012337 0
0.047779 -2.623392 0
2.443597 -4.997808 0
5.775467 -4.676828 0
7.121966 -2.279331 0
7.693923 -0.925265 0
7.746171 -0.273011 0
7.678837 -0.057746 0
7.668392 -0.010616 0
7.663157 0.002001 0
7.660387 0.004151 0
7.657932 0.003037 0
7.657491 0.001159 0
7.658195 -0.000290 0
7.660135 -0.001340 0
7.663079 -0.002024 0
7.667241 -0.001867 0
7.671778 -0.000013 0
7.673789 0.002878 0
7.672331 0.004482 0
7.669528 0.003250 0
7.668581 -0.000052 0
7.670692 -0.003247 0
7.675289 -0.004402 0
7.679541 -0.003385 0
7.681862 -0.001868 0
7.683099 -0.001150 0
7.683636 -0.001058 0
1.000000 -0.007083 0
1.007379 -0.022022 0
1.022728 -0.038838 0
1.046850 -0.058301 0
1.081002 -0.081507 0
1.127134 -0.109975 0
1.188214 -0.145843 0
1.267785 -0.190705 0
1.375318 -0.251805 0
1.507996 -0.343518 0
1.695555 -0.480446 0
1.945908 -0.676211 0
2.297563 -0.968163 0
2.814139 -1.366237 0
3.631526 -2.168482 0
5.221770 -2.089015 0
5.444653 -1.098939 0
5.392470 -0.626136 0
5.334514 -0.450135 0
5.311505 -0.443005 0
5.522226 -0.424334 0
5.683984 -0.321748 0
5.778243 -0.210467 0
5.825510 -0.119441 0
5.851065 -0.050287 0
5.869062 0.010795 0
5.885880 0.085541 0
5.906365 0.206832 0
5.935995 0.423989 0
5.911611 0.786692 0
5.669511 1.260234 0
5.127624 1.805701 0
4.303311 2.360032 0
3.132814 2.851591 0
1.706231 3.206943 0
0.000000 0.000373 0
0.000000 -1.664741 0
0.000000 0.000000 0
0.000000 -1.613367 0
0.000000 0.000171 0
-0.659766 2.360991 0
-1.003463 1.163010 0
-1.441913 0.627246 0
-1.554803 0.331194 0
-1.742131 0.195775 0
-1.870824 0.121947 0
-1.959734 0.053087 0
-1.991231 -0.030988 0
-1.941696 -0.125016 0
-1.808774 -0.225100 0
-1.584214 -0.311118 0
-1.305609 -0.397756 0
-0.913702 -0.609151 0
-0.535183 -1.662422 0
0.835757 -3.764581 0
2.502311 -6.543081 0
5.137302 -5.865462 0
4.867098 -2.589026 0
4.752115 -0.958528 0
4.404352 -0.173425 0
3.905051 0.002752 0
3.871569 0.001088 0
3.849985 0.006406 0
3.845637 0.006853 0
3.838820 0.005198 0
3.840418 0.002447 0
3.842530 0.000287 0
3.847185 -0.001642 0
3.852272 -0.003395 0
3.858762 -0.004334 0
3.868633 -0.002168 0
3.872709 0.002796 0
3.867136 0.006342 0
3.857686 0.005186 0
3.855969 0.000293 0
3.863879 -0.004909 0
3.882524 -0.006980 0
3.901189 -0.005232 0
3.910813 -0.002792 0
3.913459 -0.001684 0
3.913982 -0.001461 0
1.000000 -0.009295 0
1.006286 -0.028946 0
1.020257 -0.050993 0
1.042445 -0.076279 0
1.073779 -0.106249 0
1.115902 -0.142972 0
1.171345 -0.189031 0
1.243509 -0.248789 0
1.339909 -0.325512 0
1.459151 -0.438767 0
1.619406 -0.612554 0
1.825148 -0.851864 0
2.092273 -1.218300 0
2.473660 -1.770242 0
3.104055 -2.926456 0
4.370260 -2.585488 0
3.642021 -0.992849 0
3.040272 -0.457881 0
2.663693 -0.323007 0
2.272862 -0.451880 0
3.100650 -0.537204 0
3.480025 -0.394525 0
3.625696 -0.245691 0
3.677843 -0.135377 0
3.700547 -0.061953 0
3.720978 -0.004826 0
3.748964 0.059421 0
3.795640 0.156147 0
3.889061 0.356945 0
4.050164 0.768318 0
4.205108 1.410992 0
4.037641 2.148447 0
3.535380 2.908074 0
2.640318 3.613102 0
1.478263 4.144131 0
0.000000 0.000320 0
0.000000 -2.181972 0
0.000000 0.000000 0
0.000000 -1.773389 0
0.000000 0.000079 0
-0.413027 2.624849 0
-0.699658 1.370377 0
-0.952312 0.750497 0
-1.115422 0.432114 0
-1.311804 0.331359 0
-1.483239 0.211622 0
-1.623383 0.102446 0
-1.671294 -0.033472 0
-1.622164 -0.187690 0
-1.477177 -0.343937 0
-1.249160 -0.482276 0
-0.911997 -0.660169 0
-0.554755 -0.921196 0
0.007447 -2.131986 0
0.903206 -4.567383 0
2.144825 -7.750792 0
3.873849 -6.190287 0
1.641224 -2.032806 0
0.421767 -0.629103 0
0.143532 0.269115 0
0.185406 0.283240 0
0.852723 0.024631 0
0.254599 0.018602 0
0.825963 0.011300 0
0.472004 0.006381 0
0.784283 -0.001210 0
0.725210 -0.004617 0
0.747491 -0.007571 0
0.772058 -0.009429 0
0.813452 -0.012334 0
0.878863 -0.008935 0
0.911990 0.003840 0
0.896452 0.014101 0
0.860583 0.010402 0
0.842951 -0.004012 0
0.866112 -0.020238 0
0.936125 -0.028275 0
0.989305 -0.021486 0
0.952662 -0.009716 0
0.971724 -0.003174 0
0.972109 -0.001730 0
1.000000 -0.011097 0
1.004585 -0.034975 0
1.016975 -0.061974 0
1.036863 -0.092549 0
1.064719 -0.128513 0
1.101820 -0.172411 0
1.150157 -0.227505 0
1.212750 -0.298579 0
1.292331 -0.389810 0
1.398200 -0.522389 0
1.525983 -0.714677 0
1.654167 -0.978840 0
1.841896 -1.383204 0
2.050364 -2.013771 0
2.308299 -3.382300 0
2.003424 -2.433306 0
-0.007827 -0.247740 0
-0.004494 0.000000 0
-0.000398 0.041013 0
0.111866 -0.722652 0
1.570863 -1.196912 0
2.120383 -0.657771 0
2.305507 -0.337064 0
2.369316 -0.167339 0
2.397385 -0.077887 0
2.421468 -0.020186 0
2.443026 0.037763 0
2.465838 0.117177 0
2.502913 0.261100 0
2.621690 0.584429 0
2.864158 1.268255 0
2.955777 2.234333 0
2.702972 3.254326 0
2.110856 4.168152 0
1.196673 4.896753 0
0.000000 0.000229 0
0.000000 -2.610977 0
0.000000 0.000000 0
0.000000 -1.878037 0
0.000000 -0.000154 0
-0.269863 2.808783 0
-0.499383 1.508158 0
-0.638506 0.893341 0
-0.839479 0.561275 0
-1.023614 0.431183 0
-1.203168 0.321363 0
-1.335182 0.173448 0
-1.403193 -0.031763 0
-1.361101 -0.249245 0
-1.226711 -0.463816 0
-0.961255 -0.672827 0
-0.706996 -0.842170 0
-0.463334 -1.197590 0
0.124767 -2.595511 0
0.759762 -5.132498 0
1.487113 -8.444286 0
1.768188 -5.543152 0
-0.000680 -0.379689 0
-0.000612 0.000000 0
-0.000550 -0.022149 0
-0.602700 -0.451125 0
-0.412990 -0.043191 0
-0.188687 0.023537 0
-0.205754 -0.132282 0
-0.105710 0.031878 0
-0.039881 -0.159601 0
-0.038516 0.023838 0
-0.005831 -0.031620 0
0.025228 -0.045606 0
0.093795 -0.072685 0
0.204384 -0.065228 0
0.275924 -0.008456 0
0.248181 0.039247 0
0.162876 0.039430 0
0.137025 -0.003241 0
0.188526 -0.064536 0
0.209648 -0.085819 0
0.266594 -0.015812 0
0.243122 0.008464 0
0.228708 -0.014125 0
0.228729 -0.001951 0
1.000000 -0.012220 0
1.001417 -0.039797 0
1.012464 -0.071644 0
1.029961 -0.106828 0
1.053931 -0.147815 0
1.085320 -0.197646 0
1.125624 -0.260020 0
1.176682 -0.339774 0
1.240141 -0.444193 0
1.322194 -0.588298 0
1.408129 -0.776366 0
1.496880 -1.054042 0
1.592997 -1.471860 0
1.630393 -2.068733 0
1.449884 -2.896408 0
0.158554 0.000017 0
-1.138299 1.685426 0
-0.685137 0.000000 0
-0.415436 1.215321 0
0.000000 -0.000494 0
1.133923 -1.805847 0
1.472344 -0.864690 0
1.577525 -0.405001 0
1.616800 -0.194173 0
1.650696 -0.095325 0
1.700550 -0.034030 0
1.739155 0.031030 0
1.757521 0.117825 0
1.764711 0.257207 0
1.802335 0.537127 0
1.971206 1.197183 0
2.118380 2.251613 0
2.032196 3.448830 0
1.642430 4.577139 0
0.938511 5.495085 0
0.000000 0.000168 0
0.000000 -2.947998 0
0.000000 0.000000 0
0.000000 -1.946526 0
0.000000 -0.000339 0
-0.180052 2.944464 0
-0.369004 1.606314 0
-0.465946 0.968164 0
-0.583944 0.678588 0
-0.775835 0.564126 0
-0.984766 0.411032 0
-1.083965 0.230468 0
-1.137110 -0.016878 0
-1.103322 -0.300633 0
-0.958627 -0.599833 0
-0.783065 -0.814888 0
-0.560227 -0.978832 0
-0.303988 -1.453519 0
0.138985 -2.914762 0
0.523466 -5.439278 0
0.848481 -8.396179 0
0.243001 -0.000952 0
0.079158 4.962314 0
1.057192 0.000000 0
1.062258 0.119221 0
0.000000 -0.000340 0
-0.309827 -0.249403 0
-0.034441 -0.114024 0
-0.136811 -0.041800 0
-0.071532 -0.099773 0
-0.162330 -0.044210 0
-0.102334 -0.026404 0
-0.099079 -0.048363 0
-0.097999 -0.073186 0
-0.057393 -0.126990 0
0.021524 -0.125493 0
0.060310 -0.024186 0
0.071359 0.086456 0
-0.012441 0.081546 0
-0.167619 -0.020424 0
-0.300254 -0.066713 0
-0.362811 -0.078234 0
-0.335330 -0.042904 0
-0.251193 0.014535 0
-0.226532 0.006042 0
-0.227327 -0.001760 0
1.000000 -0.011996 0
1.000454 -0.042939 0
1.008282 -0.080235 0
1.022663 -0.119081 0
1.042330 -0.163935 0
1.067472 -0.218288 0
1.099036 -0.285970 0
1.137788 -0.371864 0
1.184168 -0.482930 0
1.237676 -0.629895 0
1.292451 -0.826470 0
1.350166 -1.097149 0
1.360646 -1.468646 0
1.256085 -1.922172 0
0.887725 -2.440315 0
0.000000 0.000028 0
0.000000 1.359140 0
0.000000 0.000000 0
0.000000 1.472183 0
0.000000 -0.000385 0
0.655072 -2.122401 0
0.849596 -0.941670 0
0.932454 -0.429509 0
0.992089 -0.214162 0
1.055490 -0.131481 0
1.132943 -0.076794 0
1.198449 0.001309 0
1.219520 0.100828 0
1.196741 0.232425 0
1.185225 0.452278 0
1.345203 1.065993 0
1.494115 2.195306 0
1.491229 3.558940 0
1.240118 4.868117 0
0.710939 5.947915 0
0.000000 0.000145 0
0.000000 -3.211711 0
0.000000 0.000000 0
0.000000 -1.993603 0
0.000000 -0.000480 0
-0.123992 3.044956 0
-0.271531 1.691136 0
-0.354676 1.030908 0
-0.423425 0.759609 0
-0.596309 0.687715 0
-0.770057 0.518573 0
-0.861763 0.270954 0
-0.893973 -0.019369 0
-0.890114 -0.363469 0
-0.731526 -0.668776 0
-0.604930 -0.927798 0
-0.406242 -1.148774 0
-0.205601 -1.645080 0
0.091337 -3.125076 0
0.333047 -5.586570 0
0.444165 -8.264783 0
0.000000 -0.001020 0
0.000000 4.774933 0
0.000000 0.000000 0
0.000000 0.239252 0
0.000000 -0.000501 0
-0.085860 -0.030213 0
0.087550 -0.087189 0
-0.196387 -0.108539 0
-0.062526 0.048214 0
-0.190978 -0.139883 0
-0.160133 -0.016638 0
-0.221215 -0.034391 0
-0.285977 -0.072281 0
-0.438650 -0.149175 0
-0.629456 -0.140553 0
-0.642003 -0.040346 0
-0.572163 0.085811 0
-0.602093 0.192381 0
-0.758551 0.180964 0
-0.918816 0.060391 0
-0.938726 -0.063367 0
-0.930529 -0.087242 0
-0.885007 -0.061162 0
-0.814105 -0.029395 0
-0.815507 -0.000932 0
1.000000 -0.012502 0
1.000474 -0.045085 0
1.004232 -0.085851 0
1.015181 -0.128613 0
1.030216 -0.176487 0
1.048491 -0.233931 0
1.070870 -0.305015 0
1.097404 -0.394251 0
1.127053 -0.508115 0
1.158857 -0.657593 0
1.189296 -0.848354 0
1.194844 -1.097680 0
1.157319 -1.411641 0
0.998944 -1.766057 0
0.647116 -2.092507 0
0.000000 0.000038 0
0.000000 1.117299 0
0.000000 0.000000 0
0.000000 1.634692 0
0.000000 -0.000361 0
0.396351 -2.349576 0
0.605641 -1.042208 0
0.646536 -0.496191 0
0.687272 -0.272910 0
0.761883 -0.185465 0
0.846080 -0.125517 0
1.013886 -0.024372 0
1.077212 0.118925 0
1.029032 0.279162 0
0.936405 0.442117 0
0.995446 0.999500 0
1.072560 2.158163 0
1.089074 3.611394 0
0.921805 5.076531 0
0.522512 6.288767 0
0.000000 0.000148 0
0.000000 -3.403022 0
0.000000 0.000000 0
0.000000 -2.026099 0
0.000000 -0.000549 0
-0.083959 3.118255 0
-0.192288 1.753957 0
-0.233562 1.065382 0
-0.293749 0.833239 0
-0.378214 0.785976 0
-0.459550 0.580929 0
-0.568442 0.309780 0
-0.632900 0.001272 0
-0.615622 -0.404593 0
-0.498096 -0.782345 0
-0.385671 -1.023064 0
-0.267076 -1.234397 0
-0.135859 -1.771964 0
0.049936 -3.259491 0
0.209045 -5.665083 0
0.235761 -8.183023 0
0.000000 -0.000971 0
0.000000 4.678027 0
0.000000 0.000000 0
0.000000 0.064355 0
0.000000 -0.000250 0
-0.072122 -0.305427 0
-0.081903 -0.043283 0
-0.068959 0.054253 0
0.002342 -0.103230 0
-0.120354 0.018263 0
-0.161983 -0.007048 0
-0.189596 0.032182 0
-0.275270 0.065977 0
-0.473011 0.092841 0
-0.749909 0.004657 0
-0.870424 -0.060849 0
-0.894673 0.060918 0
-0.861632 0.200838 0
-0.789701 0.182284 0
-0.677771 0.048604 0
-0.585669 -0.070734 0
-0.488665 -0.077280 0
-0.466807 -0.059972 0
-0.455310 -0.038434 0
-0.456695 0.000039 0
1.000000 -0.012290 0
0.999207 -0.045635 0
1.001196 -0.089641 0
1.007055 -0.135704 0
1.017660 -0.185247 0
1.029197 -0.244300 0
1.042891 -0.317269 0
1.058405 -0.407814 0
1.073772 -0.522253 0
1.088556 -0.669724 0
1.094034 -0.849496 0
1.070414 -1.076677 0
0.999648 -1.343263 0
0.816902 -1.595635 0
0.476992 -1.800985 0
0.000000 0.000023 0
0.000000 0.944977 0
0.000000 0.000000 0
0.000000 1.725844 0
0.000000 -0.000380 0
0.232033 -2.510000 0
0.395928 -1.101782 0
0.373517 -0.481746 0
0.401982 -0.287978 0
0.502377 -0.233112 0
0.628845 -0.238069 0
0.827320 -0.146609 0
0.942251 0.091141 0
0.895512 0.322548 0
0.794936 0.473780 0
0.714968 0.978860 0
0.789671 2.135390 0
0.807101 3.655430 0
0.673898 5.230723 0
0.389783 6.537876 0
0.000000 0.000160 0
0.000000 -3.546107 0
0.000000 0.000000 0
0.000000 -2.047418 0
0.000000 -0.000553 0
-0.052137 3.168031 0
-0.123234 1.786888 0
-0.105369 1.095849 0
-0.142374 0.852192 0
-0.102764 0.793834 0
-0.178705 0.640324 0
-0.239667 0.381904 0
-0.269825 0.010832 0
-0.252741 -0.449738 0
-0.278250 -0.815939 0
-0.219977 -1.075646 0
-0.129588 -1.308648 0
-0.072423 -1.847962 0
0.045501 -3.345809 0
0.140062 -5.705492 0
0.136937 -8.130989 0
0.000000 -0.000825 0
0.000000 4.624238 0
0.000000 0.000000 0
0.000000 0.193923 0
0.000000 0.000335 0
-0.025628 0.022214 0
-0.179073 -0.089209 0
-0.000302 -0.162452 0
-0.145053 0.081111 0
-0.084153 -0.034711 0
-0.117552 0.027681 0
-0.102846 0.038117 0
-0.120423 0.109109 0
-0.141312 0.154598 0
-0.200973 0.113796 0
-0.350474 0.052308 0
-0.451172 0.080189 0
-0.405009 0.125203 0
-0.257965 0.063297 0
-0.141218 -0.070185 0
-0.018739 -0.184390 0
-0.229923 -0.163310 0
-0.054858 -0.082505 0
0.061558 -0.035863 0
0.061320 0.000843 0
1.000000 -0.011986 0
0.999017 -0.045839 0
1.000857 -0.090867 0
1.000393 -0.139143 0
1.004969 -0.190651 0
1.010846 -0.250072 0
1.017506 -0.323701 0
1.024010 -0.414009 0
1.028151 -0.527404 0
1.030705 -0.670554 0
1.009393 -0.836736 0
0.975869 -1.037266 0
0.866619 -1.249387 0
0.662255 -1.431550 0
0.373487 -1.569683 0
0.000000 0.000012 0
0.000000 0.811995 0
0.000000 0.000000 0
0.000000 1.783106 0
0.000000 -0.000440 0
0.144707 -2.602958 0
0.240614 -1.132751 0
0.262374 -0.500059 0
0.297124 -0.355374 0
0.424998 -0.330651 0
0.552407 -0.333475 0
0.738107 -0.224946 0
0.863260 0.075289 0
0.863844 0.373450 0
0.692339 0.557672 0
0.507629 1.002876 0
0.571066 2.099204 0
0.596613 3.685495 0
0.500966 5.343621 0
0.292144 6.720068 0
0.000000 0.000167 0
0.000000 -3.652467 0
0.000000 0.000000 0
0.000000 -2.059428 0
0.000000 -0.000502 0
-0.024631 3.197135 0
-0.062109 1.788032 0
0.017253 1.077637 0
-0.012876 0.831577 0
0.076120 0.809234 0
0.058634 0.668552 0
0.071326 0.368102 0
0.096722 0.009645 0
0.080097 -0.399196 0
0.006181 -0.803308 0
-0.007185 -1.118202 0
-0.002105 -1.328826 0
-0.004752 -1.884015 0
0.060716 -3.395476 0
0.111955 -5.723596 0
0.092837 -8.093378 0
0.000000 -0.000632 0
0.000000 4.590723 0
0.000000 0.000000 0
0.000000 0.048170 0
0.000000 -0.000027 0
0.090594 -0.190812 0
0.099978 -0.059487 0
-0.203626 0.032485 0
-0.006644 -0.049561 0
-0.092041 0.000666 0
-0.080295 0.004920 0
-0.119608 0.034024 0
-0.109354 0.090600 0
-0.057732 0.144397 0
-0.010446 0.138525 0
-0.040556 0.099283 0
-0.074906 0.095825 0
-0.036021 0.077190 0
0.025090 0.013462 0
0.026795 -0.104497 0
0.022268 -0.013958 0
-0.273916 -0.054160 0
-0.272094 -0.246515 0
-0.253390 -0.112784 0
-0.251988 0.000350 0
1.000000 -0.011652 0
0.999331 -0.046172 0
0.998930 -0.090515 0
0.997452 -0.138329 0
0.996349 -0.191930 0
0.997463 -0.252317 0
0.998236 -0.325687 0
0.996365 -0.414620 0
0.993510 -0.526532 0
0.974977 -0.657713 0
0.940895 -0.814394 0
0.869828 -0.985294 0
0.751298 -1.142544 0
0.555752 -1.280024 0
0.303781 -1.377135 0
0.000000 0.000004 0
0.000000 0.705923 0
0.000000 0.000000 0
0.000000 1.818321 0
0.000000 -0.000507 0
0.090870 -2.663981 0
0.165855 -1.177082 0
0.189643 -0.517906 0
0.234756 -0.392051 0
0.290704 -0.396487 0
0.429432 -0.438453 0
0.656572 -0.345549 0
0.810345 0.010676 0
0.783643 0.431944 0
0.578737 0.701764 0
0.396086 1.056482 0
0.414306 2.078447 0
0.444038 3.700300 0
0.383285 5.425590 0
0.224498 6.858501 0
0.000000 0.000166 0
0.000000 -3.733076 0
0.000000 0.000000 0
0.000000 -2.063028 0
0.000000 -0.000391 0
0.001410 3.207791 0
-0.006404 1.760088 0
0.092922 1.064346 0
0.112940 0.814522 0
0.189173 0.748073 0
0.314168 0.643398 0
0.326780 0.357533 0
0.338714 0.005225 0
0.334546 -0.391786 0
0.333414 -0.760073 0
0.160383 -1.070337 0
0.113570 -1.310199 0
0.060695 -1.888161 0
0.091713 -3.420496 0
0.112730 -5.726044 0
0.079340 -8.059332 0
0.000000 -0.000483 0
0.000000 4.565161 0
0.000000 0.000000 0
0.000000 0.251582 0
0.000000 0.000019 0
-0.044705 -0.041764 0
-0.096499 0.099096 0
0.013705 -0.094209 0
-0.040728 0.009702 0