# vtk DataFile Version 2.0
generated by CFD-lab course output (written by Tobias Neckel) 
ASCII

DATASET STRUCTURED_GRID
DIMENSIONS  81 26 1 
POINTS 2106 float

0.000000 0.000000 0
0.125000 0.000000 0
0.250000 0.000000 0
0.375000 0.000000 0
0.500000 0.000000 0
0.625000 0.000000 0
0.750000 0.000000 0
0.875000 0.000000 0
1.000000 0.000000 0
1.125000 0.000000 0
1.250000 0.000000 0
1.375000 0.000000 0
1.500000 0.000000 0
1.625000 0.000000 0
1.750000 0.000000 0
1.875000 0.000000 0
2.000000 0.000000 0
2.125000 0.000000 0
2.250000 0.000000 0
2.375000 0.000000 0
2.500000 0.000000 0
2.625000 0.000000 0
2.750000 0.000000 0
2.875000 0.000000 0
3.000000 0.000000 0
3.125000 0.000000 0
3.250000 0.000000 0
3.375000 0.000000 0
3.500000 0.000000 0
3.625000 0.000000 0
3.750000 0.000000 0
3.875000 0.000000 0
4.000000 0.000000 0
4.125000 0.000000 0
4.250000 0.000000 0
4.375000 0.000000 0
4.500000 0.000000 0
4.625000 0.000000 0
4.750000 0.000000 0
4.875000 0.000000 0
5.000000 0.000000 0
5.125000 0.000000 0
5.250000 0.000000 0
5.375000 0.000000 0
5.500000 0.000000 0
5.625000 0.000000 0
5.750000 0.000000 0
5.875000 0.000000 0
6.000000 0.000000 0
6.125000 0.000000 0
6.250000 0.000000 0
6.375000 0.000000 0
6.500000 0.000000 0
6.625000 0.000000 0
6.750000 0.000000 0
6.875000 0.000000 0
7.000000 0.000000 0
7.125000 0.000000 0
7.250000 0.000000 0
7.375000 0.000000 0
7.500000 0.000000 0
7.625000 0.000000 0
7.750000 0.000000 0
7.875000 0.000000 0
8.000000 0.000000 0
8.125000 0.000000 0
8.250000 0.000000 0
8.375000 0.000000 0
8.500000 0.000000 0
8.625000 0.000000 0
8.750000 0.000000 0
8.875000 0.000000 0
9.000000 0.000000 0
9.125000 0.000000 0
9.250000 0.000000 0
9.375000 0.000000 0
9.500000 0.000000 0
9.625000 0.000000 0
9.750000 0.000000 0
9.875000 0.000000 0
10.000000 0.000000 0
0.000000 0.080000 0
0.125000 0.080000 0
0.250000 0.080000 0
0.375000 0.080000 0
0.500000 0.080000 0
0.625000 0.080000 0
0.750000 0.080000 0
0.875000 0.080000 0
1.000000 0.080000 0
1.125000 0.080000 0
1.250000 0.080000 0
1.375000 0.080000 0
1.500000 0.080000 0
1.625000 0.080000 0
1.750000 0.080000 0
1.875000 0.080000 0
2.000000 0.080000 0
2.125000 0.080000 0
2.250000 0.080000 0
2.375000 0.080000 0
2.500000 0.080000 0
2.625000 0.080000 0
2.750000 0.080000 0
2.875000 0.080000 0
3.000000 0.080000 0
3.125000 0.080000 0
3.250000 0.080000 0
3.375000 0.080000 0
3.500000 0.080000 0
3.625000 0.080000 0
3.750000 0.080000 0
3.875000 0.080000 0
4.000000 0.080000 0
4.125000 0.080000 0
4.250000 0.080000 0
4.375000 0.080000 0
4.500000 0.080000 0
4.625000 0.080000 0
4.750000 0.080000 0
4.875000 0.080000 0
5.000000 0.080000 0
5.125000 0.080000 0
5.250000 0.080000 0
5.375000 0.080000 0
5.500000 0.080000 0
5.625000 0.080000 0
5.750000 0.080000 0
5.875000 0.080000 0
6.000000 0.080000 0
6.125000 0.080000 0
6.250000 0.080000 0
6.375000 0.080000 0
6.500000 0.080000 0
6.625000 0.080000 0
6.750000 0.080000 0
6.875000 0.080000 0
7.000000 0.080000 0
7.125000 0.080000 0
7.250000 0.080000 0
7.375000 0.080000 0
7.500000 0.080000 0
7.625000 0.080000 0
7.750000 0.080000 0
7.875000 0.080000 0
8.000000 0.080000 0
8.125000 0.080000 0
8.250000 0.080000 0
8.375000 0.080000 0
8.500000 0.080000 0
8.625000 0.080000 0
8.750000 0.080000 0
8.875000 0.080000 0
9.000000 0.080000 0
9.125000 0.080000 0
9.250000 0.080000 0
9.375000 0.080000 0
9.500000 0.080000 0
9.625000 0.080000 0
9.750000 0.080000 0
9.875000 0.080000 0
10.000000 0.080000 0
0.000000 0.160000 0
0.125000 0.160000 0
0.250000 0.160000 0
0.375000 0.160000 0
0.500000 0.160000 0
0.625000 0.160000 0
0.750000 0.160000 0
0.875000 0.160000 0
1.000000 0.160000 0
1.125000 0.160000 0
1.250000 0.160000 0
1.375000 0.160000 0
1.500000 0.160000 0
1.625000 0.160000 0
1.750000 0.160000 0
1.875000 0.160000 0
2.000000 0.160000 0
2.125000 0.160000 0
2.250000 0.160000 0
2.375000 0.160000 0
2.500000 0.160000 0
2.625000 0.160000 0
2.750000 0.160000 0
2.875000 0.160000 0
3.000000 0.160000 0
3.125000 0.160000 0
3.250000 0.160000 0
3.375000 0.160000 0
3.500000 0.160000 0
3.625000 0.160000 0
3.750000 0.160000 0
3.875000 0.160000 0
4.000000 0.160000 0
4.125000 0.160000 0
4.250000 0.160000 0
4.375000 0.160000 0
4.500000 0.160000 0
4.625000 0.160000 0
4.750000 0.160000 0
4.875000 0.160000 0
5.000000 0.160000 0
5.125000 0.160000 0
5.250000 0.160000 0
5.375000 0.160000 0
5.500000 0.160000 0
5.625000 0.160000 0
5.750000 0.160000 0
5.875000 0.160000 0
6.000000 0.160000 0
6.125000 0.160000 0
6.250000 0.160000 0
6.375000 0.160000 0
6.500000 0.160000 0
6.625000 0.160000 0
6.750000 0.160000 0
6.875000 0.160000 0
7.000000 0.160000 0
7.125000 0.160000 0
7.250000 0.160000 0
7.375000 0.160000 0
7.500000 0.160000 0
7.625000 0.160000 0
7.750000 0.160000 0
7.875000 0.160000 0
8.000000 0.160000 0
8.125000 0.160000 0
8.250000 0.160000 0
8.375000 0.160000 0
8.500000 0.160000 0
8.625000 0.160000 0
8.750000 0.160000 0
8.875000 0.160000 0
9.000000 0.160000 0
9.125000 0.160000 0
9.250000 0.160000 0
9.375000 0.160000 0
9.500000 0.160000 0
9.625000 0.160000 0
9.750000 0.160000 0
9.875000 0.160000 0
10.000000 0.160000 0
0.000000 0.240000 0
0.125000 0.240000 0
0.250000 0.240000 0
0.375000 0.240000 0
0.500000 0.240000 0
0.625000 0.240000 0
0.750000 0.240000 0
0.875000 0.240000 0
1.000000 0.240000 0
1.125000 0.240000 0
1.250000 0.240000 0
1.375000 0.240000 0
1.500000 0.240000 0
1.625000 0.240000 0
1.750000 0.240000 0
1.875000 0.240000 0
2.000000 0.240000 0
2.125000 0.240000 0
2.250000 0.240000 0
2.375000 0.240000 0
2.500000 0.240000 0
2.625000 0.240000 0
2.750000 0.240000 0
2.875000 0.240000 0
3.000000 0.240000 0
3.125000 0.240000 0
3.250000 0.240000 0
3.375000 0.240000 0
3.500000 0.240000 0
3.625000 0.240000 0
3.750000 0.240000 0
3.875000 0.240000 0
4.000000 0.240000 0
4.125000 0.240000 0
4.250000 0.240000 0
4.375000 0.240000 0
4.500000 0.240000 0
4.625000 0.240000 0
4.750000 0.240000 0
4.875000 0.240000 0
5.000000 0.240000 0
5.125000 0.240000 0
5.250000 0.240000 0
5.375000 0.240000 0
5.500000 0.240000 0
5.625000 0.240000 0
5.750000 0.240000 0
5.875000 0.240000 0
6.000000 0.240000 0
6.125000 0.240000 0
6.250000 0.240000 0
6.375000 0.240000 0
6.500000 0.240000 0
6.625000 0.240000 0
6.750000 0.240000 0
6.875000 0.240000 0
7.000000 0.240000 0
7.125000 0.240000 0
7.250000 0.240000 0
7.375000 0.240000 0
7.500000 0.240000 0
7.625000 0.240000 0
7.750000 0.240000 0
7.875000 0.240000 0
8.000000 0.240000 0
8.125000 0.240000 0
8.250000 0.240000 0
8.375000 0.240000 0
8.500000 0.240000 0
8.625000 0.240000 0
8.750000 0.240000 0
8.875000 0.240000 0
9.000000 0.240000 0
9.125000 0.240000 0
9.250000 0.240000 0
9.375000 0.240000 0
9.500000 0.240000 0
9.625000 0.240000 0
9.750000 0.240000 0
9.875000 0.240000 0
10.000000 0.240000 0
0.000000 0.320000 0
0.125000 0.320000 0
0.250000 0.320000 0
0.375000 0.320000 0
0.500000 0.320000 0
0.625000 0.320000 0
0.750000 0.320000 0
0.875000 0.320000 0
1.000000 0.320000 0
1.125000 0.320000 0
1.250000 0.320000 0
1.375000 0.320000 0
1.500000 0.320000 0
1.625000 0.320000 0
1.750000 0.320000 0
1.875000 0.320000 0
2.000000 0.320000 0
2.125000 0.320000 0
2.250000 0.320000 0
2.375000 0.320000 0
2.500000 0.320000 0
2.625000 0.320000 0
2.750000 0.320000 0
2.875000 0.320000 0
3.000000 0.320000 0
3.125000 0.320000 0
3.250000 0.320000 0
3.375000 0.320000 0
3.500000 0.320000 0
3.625000 0.320000 0
3.750000 0.320000 0
3.875000 0.320000 0
4.000000 0.320000 0
4.125000 0.320000 0
4.250000 0.320000 0
4.375000 0.320000 0
4.500000 0.320000 0
4.625000 0.320000 0
4.750000 0.320000 0
4.875000 0.320000 0
5.000000 0.320000 0
5.125000 0.320000 0
5.250000 0.320000 0
5.375000 0.320000 0
5.500000 0.320000 0
5.625000 0.320000 0
5.750000 0.320000 0
5.875000 0.320000 0
6.000000 0.320000 0
6.125000 0.320000 0
6.250000 0.320000 0
6.375000 0.320000 0
6.500000 0.320000 0
6.625000 0.320000 0
6.750000 0.320000 0
6.875000 0.320000 0
7.000000 0.320000 0
7.125000 0.320000 0
7.250000 0.320000 0
7.375000 0.320000 0
7.500000 0.320000 0
7.625000 0.320000 0
7.750000 0.320000 0
7.875000 0.320000 0
8.000000 0.320000 0
8.125000 0.320000 0
8.250000 0.320000 0
8.375000 0.320000 0
8.500000 0.320000 0
8.625000 0.320000 0
8.750000 0.320000 0
8.875000 0.320000 0
9.000000 0.320000 0
9.125000 0.320000 0
9.250000 0.320000 0
9.375000 0.320000 0
9.500000 0.320000 0
9.625000 0.320000 0
9.750000 0.320000 0
9.875000 0.320000 0
10.000000 0.320000 0
0.000000 0.400000 0
0.125000 0.400000 0
0.250000 0.400000 0
0.375000 0.400000 0
0.500000 0.400000 0
0.625000 0.400000 0
0.750000 0.400000 0
0.875000 0.400000 0
1.000000 0.400000 0
1.125000 0.400000 0
1.250000 0.400000 0
1.375000 0.400000 0
1.500000 0.400000 0
1.625000 0.400000 0
1.750000 0.400000 0
1.875000 0.400000 0
2.000000 0.400000 0
2.125000 0.400000 0
2.250000 0.400000 0
2.375000 0.400000 0
2.500000 0.400000 0
2.625000 0.400000 0
2.750000 0.400000 0
2.875000 0.400000 0
3.000000 0.400000 0
3.125000 0.400000 0
3.250000 0.400000 0
3.375000 0.400000 0
3.500000 0.400000 0
3.625000 0.400000 0
3.750000 0.400000 0
3.875000 0.400000 0
4.000000 0.400000 0
4.125000 0.400000 0
4.250000 0.400000 0
4.375000 0.400000 0
4.500000 0.400000 0
4.625000 0.400000 0
4.750000 0.400000 0
4.875000 0.400000 0
5.000000 0.400000 0
5.125000 0.400000 0
5.250000 0.400000 0
5.375000 0.400000 0
5.500000 0.400000 0
5.625000 0.400000 0
5.750000 0.400000 0
5.875000 0.400000 0
6.000000 0.400000 0
6.125000 0.400000 0
6.250000 0.400000 0
6.375000 0.400000 0
6.500000 0.400000 0
6.625000 0.400000 0
6.750000 0.400000 0
6.875000 0.400000 0
7.000000 0.400000 0
7.125000 0.400000 0
7.250000 0.400000 0
7.375000 0.400000 0
7.500000 0.400000 0
7.625000 0.400000 0
7.750000 0.400000 0
7.875000 0.400000 0
8.000000 0.400000 0
8.125000 0.400000 0
8.250000 0.400000 0
8.375000 0.400000 0
8.500000 0.400000 0
8.625000 0.400000 0
8.750000 0.400000 0
8.875000 0.400000 0
9.000000 0.400000 0
9.125000 0.400000 0
9.250000 0.400000 0
9.375000 0.400000 0
9.500000 0.400000 0
9.625000 0.400000 0
9.750000 0.400000 0
9.875000 0.400000 0
10.000000 0.400000 0
0.000000 0.480000 0
0.125000 0.480000 0
0.250000 0.480000 0
0.375000 0.480000 0
0.500000 0.480000 0
[...]
POINT_DATA 2106 

VECTORS velocity float
0.500000 0.000000 0
-0.000002 0.000000 0
-0.000003 0.000000 0
-0.000004 0.000000 0
-0.000004 0.000000 0
-0.000005 0.000000 0
-0.000005 0.000000 0
-0.000006 0.000000 0
-0.000005 0.000000 0
-0.000004 0.000000 0
0.000000 0.000000 0
0.000008 0.000000 0
0.000026 0.000000 0
0.000054 0.000000 0
0.000067 0.000000 0
-0.000104 0.000000 0
-0.000470 0.000000 0
-0.000006 0.000000 0
0.000261 0.000000 0
-0.000017 0.000000 0
-0.000202 0.000000 0
-0.000122 0.000000 0
-0.000013 0.000000 0
-0.000012 0.000000 0
-0.000077 0.000000 0
-0.000127 0.000000 0
-0.000131 0.000000 0
-0.000106 0.000000 0
-0.000074 0.000000 0
-0.000044 0.000000 0
-0.000004 0.000000 0
0.000120 0.000000 0
0.000456 0.000000 0
-0.002836 0.000000 0
0.000318 0.000000 0
0.000000 0.000000 0
0.000000 0.000000 0
0.000000 0.000000 0
0.000000 0.000000 0
0.000000 0.000000 0
-0.000308 0.000000 0
-0.000216 0.000000 0
-0.000375 0.000000 0
-0.000464 0.000000 0
-0.000490 0.000000 0
-0.000464 0.000000 0
-0.000415 0.000000 0
-0.000391 0.000000 0
-0.000338 0.000000 0
-0.000243 0.000000 0
-0.000144 0.000000 0
-0.000065 0.000000 0
-0.000079 0.000000 0
-0.000413 0.000000 0
-0.001952 0.000000 0
-0.006889 0.000000 0
0.007555 0.000000 0
0.000699 0.000000 0
0.000135 0.000000 0
-0.000056 0.000000 0
-0.000118 0.000000 0
-0.000174 0.000000 0
-0.000233 0.000000 0
-0.000255 0.000000 0
-0.000238 0.000000 0
-0.000192 0.000000 0
-0.000136 0.000000 0
-0.000075 0.000000 0
-0.000015 0.000000 0
0.000049 0.000000 0
0.000133 0.000000 0
0.000255 0.000000 0
0.000407 0.000000 0
0.000573 0.000000 0
0.000756 0.000000 0
0.000945 0.000000 0
0.001121 0.000000 0
0.001261 0.000000 0
0.001346 0.000000 0
0.001359 0.000000 0
0.001361 0.000000 0
1.000000 -0.001825 0
1.007159 -0.006239 0
1.022534 -0.011908 0
1.047397 -0.018650 0
1.083462 -0.026773 0
1.133136 -0.036751 0
1.199671 -0.049404 0
1.287907 -0.064607 0
1.401392 -0.086754 0
1.556431 -0.117934 0
1.766852 -0.169589 0
2.075685 -0.237647 0
2.495841 -0.336229 0
3.110899 -0.452557 0
3.927020 -0.660433 0
5.272397 -0.701993 0
6.157446 -0.470934 0
6.662204 -0.291615 0
6.979559 -0.204810 0
7.239785 -0.176126 0
7.500654 -0.157402 0
7.720468 -0.125815 0
7.881549 -0.087840 0
7.984335 -0.051350 0
8.038925 -0.020120 0
8.051786 0.011101 0
8.019341 0.049090 0
7.924071 0.108439 0
7.723970 0.201908 0
7.355970 0.326548 0
6.786392 0.474694 0
5.931375 0.641488 0
4.786571 0.834684 0
3.376649 0.995520 0
1.726509 1.043691 0
0.000000 0.000204 0
0.000000 -0.518029 0
0.000000 0.000000 0
0.000000 -0.881153 0
0.000000 0.000198 0
-2.104252 1.288051 0
-3.140165 0.565797 0
-3.493506 0.233673 0
-3.726321 0.116590 0
-3.853093 0.066055 0
-3.924559 0.037180 0
-3.961438 0.017664 0
-3.968591 0.002589 0
-3.952433 -0.010888 0
-3.913371 -0.026041 0
-3.848609 -0.049307 0
-3.736377 -0.098948 0
-3.512954 -0.216374 0
-3.007161 -0.511119 0
-1.863577 -1.279980 0
1.124597 -2.923442 0
6.032407 -2.959147 0
8.524226 -1.370771 0
9.621731 -0.561359 0
9.972699 -0.183420 0
10.046852 -0.048714 0
10.066427 -0.012582 0
10.072385 -0.003364 0
10.076300 -0.001404 0
10.079507 -0.001245 0
10.084630 -0.000681 0
10.086591 0.000315 0
10.088195 0.000781 0
10.089737 0.001743 0
10.088977 0.003290 0
10.085064 0.004184 0
10.081221 0.003947 0
10.079145 0.003714 0
10.077161 0.004254 0
10.073882 0.004848 0
10.070888 0.005101 0
10.068646 0.005754 0
10.065114 0.006830 0
10.059921 0.007279 0
10.054959 0.004473 0
10.053560 0.001745 0
1.000000 -0.004579 0
1.008207 -0.014417 0
1.024678 -0.025749 0
1.050313 -0.038990 0
1.086612 -0.054870 0
1.135797 -0.074370 0
1.201025 -0.099050 0
1.286543 -0.129099 0
1.398164 -0.171852 0
1.544596 -0.233890 0
1.750829 -0.332319 0
2.030405 -0.466550 0
2.436095 -0.662534 0
3.017869 -0.915951 0
3.862882 -1.383355 0
5.367528 -1.427469 0
6.024286 -0.889474 0
6.366823 -0.526150 0
6.557086 -0.369649 0
6.734721 -0.333498 0
6.969018 -0.307634 0
7.166234 -0.243770 0
7.303701 -0.168872 0
7.389883 -0.100718 0
7.437871 -0.043166 0
7.456855 0.012536 0
7.448806 0.081740 0
7.402309 0.189040 0
7.291940 0.363588 0
7.049627 0.600053 0
6.567334 0.911743 0
5.817827 1.279888 0
4.742110 1.635027 0
3.422726 1.958443 0
1.819458 2.161058 0
0.000000 0.000261 0
0.000000 -1.104706 0
0.000000 0.000000 0
0.000000 -1.346369 0
0.000000 0.000356 0
-1.149237 2.009711 0
-1.704803 0.889127 0
-2.005903 0.375145 0
-2.244269 0.230140 0
-2.360597 0.126876 0
-2.432959 0.069345 0
-2.462426 0.028185 0
-2.456777 -0.005759 0
-2.416011 -0.035336 0
-2.355083 -0.066443 0
-2.273053 -0.113271 0
-2.155156 -0.214814 0
-1.942834 -0.466694 0
-1.438824 -1.055597 0
0.002593 -2.644320 0
2.495772 -5.053424 0
5.757218 -4.735757 0
7.115965 -2.297162 0
7.686783 -0.927017 0
7.730690 -0.272072 0
7.661876 -0.059980 0
7.650913 -0.016335 0
7.648818 -0.006312 0
7.652678 -0.004552 0
7.654427 -0.005325 0
7.664126 -0.004527 0
7.666718 -0.002275 0
7.670414 -0.002007 0
7.676444 -0.000494 0
7.681047 0.002997 0
7.680595 0.004970 0
7.680969 0.003795 0
7.685312 0.002605 0
7.690539 0.003375 0
7.693082 0.004021 0
7.696333 0.003358 0
7.702306 0.003702 0
7.706805 0.005591 0
7.708432 0.006506 0
7.709064 0.004077 0
7.708932 0.001805 0
1.000000 -0.007076 0
1.007348 -0.022030 0
1.022739 -0.038855 0
1.046846 -0.058287 0
1.080942 -0.081482 0
1.127030 -0.109973 0
1.188107 -0.145880 0
1.267703 -0.190774 0
1.375267 -0.251907 0
1.508006 -0.343639 0
1.695693 -0.480506 0
1.946101 -0.676215 0
2.297997 -0.968204 0
2.814940 -1.365700 0
3.631957 -2.164214 0
5.225197 -2.085291 0
5.388959 -1.110483 0
5.375084 -0.632606 0
5.341182 -0.440263 0
5.316377 -0.439761 0
5.512570 -0.433570 0
5.675191 -0.340011 0
5.781701 -0.230974 0
5.842268 -0.137218 0
5.876544 -0.062982 0
5.898181 0.004104 0
5.915733 0.084000 0
5.933354 0.208834 0
5.957747 0.427626 0
5.929781 0.790296 0
5.682559 1.263046 0
5.145935 1.809633 0
4.325556 2.367549 0
3.147176 2.866018 0
1.714356 3.234237 0
0.000000 0.000173 0
0.000000 -1.682514 0
0.000000 0.000000 0
0.000000 -1.616967 0
0.000000 -0.000102 0
-0.674043 2.379127 0
-0.945561 1.114065 0
-1.260509 0.578932 0
-1.460228 0.343595 0
-1.607541 0.186818 0
-1.696595 0.102352 0
-1.728325 0.032909 0
-1.703554 -0.027115 0
-1.628803 -0.075971 0
-1.527715 -0.117533 0
-1.404231 -0.177259 0
-1.222060 -0.310287 0
-1.057759 -0.674825 0
-0.578540 -1.756191 0
0.829334 -3.798120 0
2.510052 -6.606400 0
5.120716 -5.916069 0
4.843258 -2.605690 0
4.722003 -0.954781 0
4.357106 -0.167478 0
3.833155 0.002345 0
3.798115 -0.004223 0
3.771433 -0.004491 0
3.800400 -0.004992 0
3.780135 -0.008569 0
3.828639 -0.008545 0
3.824729 -0.003707 0
3.827014 -0.005442 0
3.840324 -0.005061 0
3.858159 0.000635 0
3.853720 0.004237 0
3.851511 0.000930 0
3.862656 -0.002408 0
3.881661 -0.000717 0
3.886716 0.001141 0
3.889494 -0.000800 0
3.907339 -0.000946 0
3.922134 0.002911 0
3.925301 0.005836 0
3.926153 0.004156 0
3.926082 0.001940 0
1.000000 -0.009280 0
1.006241 -0.028968 0
1.020336 -0.051027 0
1.042494 -0.076239 0
1.073720 -0.106186 0
1.115771 -0.142955 0
1.171216 -0.189079 0
1.243422 -0.248880 0
1.339859 -0.325645 0
1.459154 -0.438962 0
1.619620 -0.612699 0
1.825508 -0.852023 0
2.093023 -1.218590 0
2.474743 -1.769685 0
3.104418 -2.925918 0
4.373957 -2.551949 0
3.650243 -0.985401 0
3.030405 -0.495572 0
2.661797 -0.332075 0
2.280085 -0.443185 0
3.077647 -0.537275 0
3.475775 -0.416013 0
3.657644 -0.275800 0
3.742894 -0.161416 0
3.786484 -0.078950 0
3.814297 -0.012544 0
3.840964 0.059230 0
3.880260 0.162152 0
3.958059 0.365876 0
4.090796 0.776174 0
4.217371 1.413406 0
4.048862 2.148371 0
3.547242 2.914234 0
2.650300 3.629612 0
1.484506 4.175251 0
0.000000 0.000083 0
0.000000 -2.202073 0
0.000000 0.000000 0
0.000000 -1.778091 0
0.000000 0.000024 0
-0.405255 2.614873 0
-0.628845 1.264467 0
-0.877970 0.704533 0
-1.038706 0.452242 0
-1.216780 0.278153 0
-1.336426 0.146648 0
-1.378926 0.032640 0
-1.342093 -0.069451 0
-1.237742 -0.147872 0
-1.099329 -0.210167 0
-0.884616 -0.308889 0
-0.683874 -0.436555 0
-0.521085 -0.878545 0
-0.010445 -2.263335 0
0.923355 -4.621017 0
2.147090 -7.799907 0
3.857983 -6.229008 0
1.600228 -2.041984 0
0.378537 -0.615878 0
0.108386 0.296792 0
0.149660 0.297776 0
0.778126 0.023170 0
0.136102 -0.007773 0
0.838236 -0.010119 0
0.246964 -0.023396 0
0.841444 -0.033066 0
0.668475 -0.001233 0
0.777383 -0.011985 0
0.847521 -0.020424 0
0.918292 -0.005574 0
0.857134 0.009227 0
0.756395 -0.001922 0
0.755405 -0.016689 0
0.833777 -0.012021 0
0.857374 -0.000990 0
0.848582 -0.009839 0
0.905956 -0.017185 0
1.010492 -0.005903 0
0.974005 0.003936 0
0.961239 0.003580 0
0.961437 0.001921 0
1.000000 -0.011068 0
1.004508 -0.035043 0
1.017230 -0.062055 0
1.037030 -0.092452 0
1.064672 -0.128378 0
1.101649 -0.172370 0
1.149999 -0.227576 0
1.212666 -0.298704 0
1.292299 -0.389975 0
1.398204 -0.522684 0
1.526246 -0.714972 0
1.654719 -0.979192 0
1.842723 -1.383714 0
2.051414 -2.012992 0
2.309582 -3.379710 0
2.002620 -2.434618 0
-0.007904 -0.250608 0
0.000725 0.000000 0
0.000409 0.039942 0
0.112842 -0.705904 0
1.548601 -1.198810 0
2.147932 -0.711209 0
2.390559 -0.401929 0
2.499046 -0.219675 0
2.551610 -0.108679 0
2.578189 -0.030763 0
2.593394 0.041785 0
2.610367 0.133894 0
2.638869 0.292884 0
2.752350 0.624338 0
2.914599 1.289885 0
2.990228 2.238516 0
2.718526 3.262630 0
2.119566 4.186169 0
1.202114 4.930430 0
0.000000 -0.000012 0
0.000000 -2.632782 0
0.000000 0.000000 0
0.000000 -1.876124 0
0.000000 0.000106 0
-0.252599 2.781591 0
-0.452809 1.416604 0
-0.689377 0.841245 0
-0.877433 0.560435 0
-1.025165 0.377360 0
-1.157130 0.206127 0
-1.212435 0.036537 0
-1.171937 -0.117472 0
-1.050004 -0.231338 0
-0.876840 -0.343531 0
-0.692536 -0.443148 0
-0.467531 -0.542946 0
-0.312422 -1.105818 0
0.166031 -2.680631 0
0.779267 -5.178940 0
1.491231 -8.484561 0
1.760909 -5.566075 0
-0.000060 -0.378843 0
-0.000026 0.000000 0
0.000068 -0.020994 0
-0.583662 -0.426287 0
-0.388526 0.004457 0
-0.234561 -0.042960 0
-0.386610 -0.075941 0
-0.191922 -0.010621 0
-0.167273 -0.278310 0
-0.052310 0.037295 0
0.021247 -0.120029 0
0.140960 -0.095241 0
0.282749 -0.005515 0
0.193718 0.107853 0
-0.072288 0.066039 0
-0.091501 -0.051930 0
0.013540 -0.065975 0
-0.007613 -0.008332 0
0.025660 -0.031890 0
0.130566 -0.104567 0
0.216241 -0.040638 0
0.188381 0.037360 0
0.207720 0.012201 0
0.208336 0.001698 0
1.000000 -0.012163 0
1.001400 -0.039993 0
1.013251 -0.071840 0
1.030417 -0.106600 0
1.053936 -0.147541 0
1.085088 -0.197563 0
1.125396 -0.260129 0
1.176560 -0.339951 0
1.240072 -0.444388 0
1.322126 -0.588687 0
1.408234 -0.776867 0
1.497445 -1.054567 0
1.593456 -1.472473 0
1.631003 -2.068474 0
1.451683 -2.894690 0
0.160389 0.000158 0
-1.192903 1.684415 0
-0.693393 0.000000 0
-0.410260 1.195073 0
0.000000 0.000031 0
1.131453 -1.823371 0
1.571124 -0.954865 0
1.734354 -0.500512 0
1.807231 -0.264488 0
1.845835 -0.129600 0
1.860192 -0.039285 0
1.859497 0.038637 0
1.858398 0.133049 0
1.870148 0.275008 0
1.929849 0.599708 0
2.068871 1.261164 0
2.177172 2.273858 0
2.050217 3.471459 0
1.651246 4.600116 0
0.944298 5.531774 0
0.000000 -0.000089 0
0.000000 -2.971597 0
0.000000 0.000000 0
0.000000 -1.939631 0
0.000000 0.000148 0
-0.164608 2.904673 0
-0.328282 1.544007 0
-0.511579 0.976293 0
-0.735919 0.667147 0
-0.922020 0.457161 0
-1.016367 0.266502 0
-1.059464 0.042118 0
-0.964605 -0.173405 0
-0.846548 -0.336732 0
-0.718991 -0.438945 0
-0.536984 -0.570845 0
-0.323817 -0.679826 0
-0.154506 -1.284023 0
0.203402 -2.962014 0
0.551714 -5.469144 0
0.859154 -8.428157 0
0.242460 -0.000180 0
0.103904 4.984233 0
1.080180 0.000000 0
1.066338 0.123890 0
0.000000 0.000307 0
-0.236770 -0.208851 0
-0.120493 -0.008997 0
-0.433166 -0.037406 0
-0.101404 -0.163769 0
-0.256446 -0.122415 0
-0.267497 -0.121884 0
-0.297967 -0.135676 0
-0.148291 -0.187783 0
0.007746 -0.039337 0
0.047038 0.236452 0
-0.181657 0.180620 0
-0.478414 -0.071616 0
-0.622562 -0.065707 0
-0.442581 -0.008744 0
-0.290832 -0.098271 0
-0.299202 -0.139155 0
-0.283510 -0.042903 0
-0.236693 0.009391 0
-0.246482 -0.009189 0
-0.245334 0.001138 0
1.000000 -0.011963 0
0.999954 -0.043521 0
1.008552 -0.080625 0
1.023357 -0.118490 0
1.042354 -0.163367 0
1.067141 -0.218103 0
1.098693 -0.286117 0
1.137565 -0.372096 0
1.183961 -0.483136 0
1.237373 -0.630306 0
1.292113 -0.827174 0
1.350529 -1.097734 0
1.359945 -1.469190 0
1.256208 -1.922256 0
0.888456 -2.438516 0
0.000000 0.000088 0
0.000000 1.357669 0
0.000000 0.000000 0
0.000000 1.453668 0
0.000000 0.000053 0
0.677097 -2.187968 0
1.052150 -1.097064 0
1.077560 -0.553037 0
1.101792 -0.291022 0
1.159534 -0.142573 0
1.183474 -0.039505 0
1.187627 0.042935 0
1.180122 0.127078 0
1.189323 0.247156 0
1.231899 0.497156 0
1.417592 1.131599 0
1.551249 2.250455 0
1.510622 3.599223 0
1.249346 4.893959 0
0.718653 5.987228 0
0.000000 -0.000124 0
0.000000 -3.237246 0
0.000000 0.000000 0
0.000000 -1.981381 0
0.000000 0.000200 0
-0.108133 2.991694 0
-0.232879 1.638666 0
-0.400076 1.102134 0
-0.644856 0.823119 0
-0.807411 0.556848 0
-0.926323 0.294093 0
-0.916729 0.003411 0
-0.799304 -0.253737 0
-0.676063 -0.388530 0
-0.550251 -0.541651 0
-0.368357 -0.696058 0
-0.277815 -0.787730 0
-0.068141 -1.443236 0
0.158744 -3.132610 0
0.364030 -5.598620 0
0.459212 -8.286637 0
0.000000 -0.000076 0
0.000000 4.792471 0
0.000000 0.000000 0
0.000000 0.262865 0
0.000000 0.000509 0
-0.104920 0.072977 0
-0.185607 0.082736 0
-0.243334 -0.088156 0
-0.277730 -0.123720 0
-0.670036 -0.172008 0
-0.731553 0.063870 0
-0.684125 -0.196318 0
-0.534304 -0.290895 0
-0.533588 -0.130524 0
-0.414138 0.229073 0
-0.437024 0.402330 0
-0.776902 0.230251 0
-0.948067 -0.088905 0
-0.670992 -0.220636 0
-0.541566 -0.123651 0
-0.644226 -0.109251 0
-0.703757 -0.080642 0
-0.682089 0.013664 0
-0.752310 0.017734 0
-0.750589 0.000233 0
1.000000 -0.012132 0
1.000692 -0.045464 0
1.003179 -0.086817 0
1.016319 -0.128232 0
1.030197 -0.175562 0
1.048073 -0.233619 0
1.070499 -0.305199 0
1.097190 -0.394522 0
1.126807 -0.508264 0
1.158326 -0.657903 0
1.188371 -0.849286 0
1.194705 -1.097979 0
1.155272 -1.412107 0
0.999193 -1.766719 0
0.647057 -2.090715 0
0.000000 0.000047 0
0.000000 1.115692 0
0.000000 0.000000 0
0.000000 1.628453 0
0.000000 0.000070 0
0.442876 -2.496745 0
0.748379 -1.211161 0
0.578668 -0.532281 0
0.612258 -0.316950 0
0.716189 -0.181876 0
0.770487 -0.057264 0
0.797644 0.040783 0
0.810623 0.131965 0
0.792633 0.241872 0
0.807916 0.453617 0
1.004660 1.056781 0
1.106505 2.214320 0
1.109666 3.664678 0
0.931279 5.106978 0
0.527338 6.331357 0
0.000000 -0.000097 0
0.000000 -3.431544 0
0.000000 0.000000 0
0.000000 -2.008755 0
0.000000 0.000231 0
-0.069048 3.053718 0
-0.161234 1.730852 0
-0.317503 1.239961 0
-0.496473 0.927843 0
-0.627484 0.637301 0
-0.744888 0.336467 0
-0.705626 -0.039173 0
-0.611275 -0.327429 0
-0.496065 -0.496125 0
-0.378745 -0.635875 0
-0.259253 -0.745203 0
-0.180793 -0.871963 0
-0.042701 -1.563419 0
0.104867 -3.238602 0
0.235742 -5.661442 0
0.250755 -8.195176 0
0.000000 -0.000081 0
0.000000 4.690436 0
0.000000 0.000000 0
0.000000 0.056701 0
0.000000 0.000270 0
-0.264015 -0.090059 0
-0.037958 0.079590 0
-0.040555 0.021554 0
-0.131849 0.109323 0
-0.615954 0.168034 0
-0.494098 -0.112865 0
-0.479071 -0.261914 0
-0.688630 -0.284125 0
-0.884541 -0.116241 0
-0.765599 0.174654 0
-0.593131 0.412791 0
-0.605076 0.255453 0
-0.538155 -0.133487 0
-0.406472 -0.268903 0
-0.346453 -0.115399 0
-0.318158 -0.035351 0
-0.381299 -0.018669 0
-0.326040 0.040467 0
-0.385990 0.034654 0
-0.384560 -0.001060 0
1.000000 -0.012404 0
1.000096 -0.045554 0
0.999655 -0.090625 0
1.008442 -0.135780 0
1.017666 -0.183688 0
1.028899 -0.243895 0
1.042562 -0.317550 0
1.058201 -0.408132 0
1.073562 -0.522262 0
1.087913 -0.669706 0
1.092501 -0.850456 0
1.068653 -1.076549 0
0.999592 -1.344061 0
0.815246 -1.596997 0
0.476413 -1.799032 0
0.000000 0.000020 0
0.000000 0.943484 0
0.000000 0.000000 0
0.000000 1.737133 0
0.000000 0.000079 0
0.274302 -2.666929 0
0.396628 -1.183971 0
0.269335 -0.465919 0
0.405413 -0.379034 0
0.461733 -0.243839 0
0.532298 -0.091636 0
0.575014 0.017249 0
0.579469 0.130286 0
0.545696 0.248890 0
0.446447 0.361460 0
0.697802 0.940503 0
0.801683 2.183252 0
0.821571 3.711369 0
0.681633 5.266650 0
0.390697 6.583248 0
0.000000 -0.000033 0
0.000000 -3.574652 0
0.000000 0.000000 0
0.000000 -2.025541 0
0.000000 0.000233 0
-0.038529 3.094886 0
-0.098576 1.797679 0
-0.204455 1.316689 0
-0.286020 1.021508 0
-0.424462 0.715835 0
-0.472700 0.344106 0
-0.431923 -0.082099 0
-0.363231 -0.387854 0
-0.278716 -0.537348 0
-0.207481 -0.693210 0
-0.177992 -0.822746 0
-0.122534 -0.926322 0
-0.030182 -1.626057 0
0.078589 -3.310812 0
0.157803 -5.691987 0
0.148886 -8.135760 0
0.000000 -0.000147 0
0.000000 4.631917 0
0.000000 0.000000 0
0.000000 0.093806 0
0.000000 0.000422 0
-0.124461 0.097273 0
0.152821 -0.060276 0
0.002190 -0.028063 0
-0.107858 0.244538 0
0.113481 0.059833 0
0.008078 -0.023733 0
-0.062832 -0.071816 0
-0.338317 -0.031392 0
-0.513041 -0.081261 0
-0.595785 0.042573 0
-0.448487 0.299598 0
-0.285053 0.195068 0
-0.189082 -0.216010 0
-0.229616 -0.343323 0
-0.323210 -0.180169 0
-0.248916 -0.086947 0
-0.135018 -0.075596 0
-0.082250 0.016668 0
-0.069660 0.055189 0
-0.069481 -0.001597 0
1.000000 -0.012192 0
0.998418 -0.045241 0
1.000399 -0.092157 0
1.000508 -0.139758 0
1.005460 -0.188653 0
1.011185 -0.249551 0
1.017483 -0.323951 0
1.023879 -0.414361 0
1.028120 -0.527279 0
1.030332 -0.670022 0
1.007878 -0.836958 0
0.973085 -1.038516 0
0.867720 -1.249925 0
0.658980 -1.431883 0
0.373089 -1.568956 0
0.000000 0.000002 0
0.000000 0.810741 0
0.000000 0.000000 0
0.000000 1.804013 0
0.000000 0.000078 0
0.164202 -2.750586 0
0.200222 -1.207981 0
0.273066 -0.537903 0
0.395747 -0.440084 0
0.378720 -0.263082 0
0.516592 -0.129763 0
0.606266 0.010595 0
0.571174 0.150729 0
0.491275 0.327006 0
0.387778 0.356269 0
0.467511 0.829431 0
0.571364 2.135108 0
0.605127 3.741511 0
0.506734 5.382738 0
0.293948 6.767603 0
0.000000 0.000039 0
0.000000 -3.681454 0
0.000000 0.000000 0
0.000000 -2.033440 0
0.000000 0.000206 0
-0.011982 3.116809 0
-0.039769 1.837046 0
-0.091218 1.359926 0
-0.116321 1.068649 0
-0.141085 0.756778 0
-0.169747 0.341243 0
-0.148833 -0.109231 0
-0.125670 -0.425480 0
-0.084741 -0.595804 0
0.002455 -0.700337 0
-0.106469 -0.799567 0
-0.060506 -0.966560 0
-0.003998 -1.692136 0
0.071122 -3.358910 0
0.118612 -5.706430 0
0.100004 -8.094181 0
0.000000 -0.000249 0
0.000000 4.594979 0
0.000000 0.000000 0
0.000000 -0.022641 0
0.000000 0.000586 0
0.161987 -0.187860 0
0.127793 -0.001465 0
-0.163101 0.188391 0
0.109137 0.038099 0
0.066971 0.093837 0
0.065141 -0.000022 0
-0.029633 -0.040218 0
-0.040209 0.004011 0
-0.094350 0.048541 0
-0.267591 0.133342 0
-0.237369 0.213925 0
-0.039952 0.089436 0
0.040050 -0.168965 0
-0.163060 -0.183059 0
-0.273499 -0.103045 0
-0.347456 -0.155792 0
-0.517444 -0.125332 0
-0.498792 -0.001359 0
-0.232968 0.026484 0
-0.234959 -0.001298 0
1.000000 -0.011391 0
0.998874 -0.045807 0
0.999681 -0.091961 0
0.995559 -0.139018 0
0.996500 -0.190520 0
0.998183 -0.251589 0
0.998641 -0.325673 0
0.996300 -0.414938 0
0.994048 -0.526390 0
0.975218 -0.656750 0
0.940610 -0.813817 0
0.867893 -0.986847 0
0.751064 -1.143032 0
0.553250 -1.280432 0
0.304207 -1.377283 0
0.000000 -0.000000 0
0.000000 0.704686 0
0.000000 0.000000 0
0.000000 1.842192 0
0.000000 0.000049 0
0.094389 -2.795069 0
0.109817 -1.253642 0
0.295529 -0.591054 0
0.301482 -0.446652 0
0.257631 -0.321179 0
0.477150 -0.237264 0
0.650324 -0.017683 0
0.628710 0.203881 0
0.588248 0.366264 0
0.417407 0.376670 0
0.288819 0.823010 0
0.396738 2.095178 0
0.447480 3.752732 0
0.387477 5.465805 0
0.225540 6.907558 0
0.000000 0.000088 0
0.000000 -3.762658 0
0.000000 0.000000 0
0.000000 -2.033289 0
0.000000 0.000155 0
0.012786 3.120341 0
0.016647 1.848391 0
0.018076 1.365683 0
0.058443 1.053424 0
0.101517 0.750029 0
0.099666 0.349066 0
0.122488 -0.110307 0
0.150959 -0.428872 0
0.104459 -0.619347 0
0.054519 -0.679302 0
0.021094 -0.782449 0
0.008053 -0.991901 0
0.027231 -1.710297 0
0.082292 -3.389281 0
0.108856 -5.710470 0
0.081562 -8.059847 0
0.000000 -0.000398 0
0.000000 4.567662 0
0.000000 0.000000 0
0.000000 0.197333 0
0.000000 0.000280 0
0.040232 0.015489 0
-0.199217 0.147782 0
0.071138 -0.016121 0
0.033920 0.097295 0