# vtk DataFile Version 2.0
generated by CFD-lab course output (written by Tobias Neckel) 
ASCII

DATASET STRUCTURED_GRID
DIMENSIONS  81 26 1 
POINTS 2106 float

0.000000 0.000000 0
0.125000 0.000000 0
0.250000 0.000000 0
0.375000 0.000000 0
0.500000 0.000000 0
0.625000 0.000000 0
0.750000 0.000000 0
0.875000 0.000000 0
1.000000 0.000000 0
1.125000 0.000000 0
1.250000 0.000000 0
1.375000 0.000000 0
1.500000 0.000000 0
1.625000 0.000000 0
1.750000 0.000000 0
1.875000 0.000000 0
2.000000 0.000000 0
2.125000 0.000000 0
2.250000 0.000000 0
2.375000 0.000000 0
2.500000 0.000000 0
2.625000 0.000000 0
2.750000 0.000000 0
2.875000 0.000000 0
3.000000 0.000000 0
3.125000 0.000000 0
3.250000 0.000000 0
3.375000 0.000000 0
3.500000 0.000000 0
3.625000 0.000000 0
3.750000 0.000000 0
3.875000 0.000000 0
4.000000 0.000000 0
4.125000 0.000000 0
4.250000 0.000000 0
4.375000 0.000000 0
4.500000 0.000000 0
4.625000 0.000000 0
4.750000 0.000000 0
4.875000 0.000000 0
5.000000 0.000000 0
5.125000 0.000000 0
5.250000 0.000000 0
5.375000 0.000000 0
5.500000 0.000000 0
5.625000 0.000000 0
5.750000 0.000000 0
5.875000 0.000000 0
6.000000 0.000000 0
6.125000 0.000000 0
6.250000 0.000000 0
6.375000 0.000000 0
6.500000 0.000000 0
6.625000 0.000000 0
6.750000 0.000000 0
6.875000 0.000000 0
7.000000 0.000000 0
7.125000 0.000000 0
7.250000 0.000000 0
7.375000 0.000000 0
7.500000 0.000000 0
7.625000 0.000000 0
7.750000 0.000000 0
7.875000 0.000000 0
8.000000 0.000000 0
8.125000 0.000000 0
8.250000 0.000000 0
8.375000 0.000000 0
8.500000 0.000000 0
8.625000 0.000000 0
8.750000 0.000000 0
8.875000 0.000000 0
9.000000 0.000000 0
9.125000 0.000000 0
9.250000 0.000000 0
9.375000 0.000000 0
9.500000 0.000000 0
9.625000 0.000000 0
9.750000 0.000000 0
9.875000 0.000000 0
10.000000 0.000000 0
0.000000 0.080000 0
0.125000 0.080000 0
0.250000 0.080000 0
0.375000 0.080000 0
0.500000 0.080000 0
0.625000 0.080000 0
0.750000 0.080000 0
0.875000 0.080000 0
1.000000 0.080000 0
1.125000 0.080000 0
1.250000 0.080000 0
1.375000 0.080000 0
1.500000 0.080000 0
1.625000 0.080000 0
1.750000 0.080000 0
1.875000 0.080000 0
2.000000 0.080000 0
2.125000 0.080000 0
2.250000 0.080000 0
2.375000 0.080000 0
2.500000 0.080000 0
2.625000 0.080000 0
2.750000 0.080000 0
2.875000 0.080000 0
3.000000 0.080000 0
3.125000 0.080000 0
3.250000 0.080000 0
3.375000 0.080000 0
3.500000 0.080000 0
3.625000 0.080000 0
3.750000 0.080000 0
3.875000 0.080000 0
4.000000 0.080000 0
4.125000 0.080000 0
4.250000 0.080000 0
4.375000 0.080000 0
4.500000 0.080000 0
4.625000 0.080000 0
4.750000 0.080000 0
4.875000 0.080000 0
5.000000 0.080000 0
5.125000 0.080000 0
5.250000 0.080000 0
5.375000 0.080000 0
5.500000 0.080000 0
5.625000 0.080000 0
5.750000 0.080000 0
5.875000 0.080000 0
6.000000 0.080000 0
6.125000 0.080000 0
6.250000 0.080000 0
6.375000 0.080000 0
6.500000 0.080000 0
6.625000 0.080000 0
6.750000 0.080000 0
6.875000 0.080000 0
7.000000 0.080000 0
7.125000 0.080000 0
7.250000 0.080000 0
7.375000 0.080000 0
7.500000 0.080000 0
7.625000 0.080000 0
7.750000 0.080000 0
7.875000 0.080000 0
8.000000 0.080000 0
8.125000 0.080000 0
8.250000 0.080000 0
8.375000 0.080000 0
8.500000 0.080000 0
8.625000 0.080000 0
8.750000 0.080000 0
8.875000 0.080000 0
9.000000 0.080000 0
9.125000 0.080000 0
9.250000 0.080000 0
9.375000 0.080000 0
9.500000 0.080000 0
9.625000 0.080000 0
9.750000 0.080000 0
9.875000 0.080000 0
10.000000 0.080000 0
0.000000 0.160000 0
0.125000 0.160000 0
0.250000 0.160000 0
0.375000 0.160000 0
0.500000 0.160000 0
0.625000 0.160000 0
0.750000 0.160000 0
0.875000 0.160000 0
1.000000 0.160000 0
1.125000 0.160000 0
1.250000 0.160000 0
1.375000 0.160000 0
1.500000 0.160000 0
1.625000 0.160000 0
1.750000 0.160000 0
1.875000 0.160000 0
2.000000 0.160000 0
2.125000 0.160000 0
2.250000 0.160000 0
2.375000 0.160000 0
2.500000 0.160000 0
2.625000 0.160000 0
2.750000 0.160000 0
2.875000 0.160000 0
3.000000 0.160000 0
3.125000 0.160000 0
3.250000 0.160000 0
3.375000 0.160000 0
3.500000 0.160000 0
3.625000 0.160000 0
3.750000 0.160000 0
3.875000 0.160000 0
4.000000 0.160000 0
4.125000 0.160000 0
4.250000 0.160000 0
4.375000 0.160000 0
4.500000 0.160000 0
4.625000 0.160000 0
4.750000 0.160000 0
4.875000 0.160000 0
5.000000 0.160000 0
5.125000 0.160000 0
5.250000 0.160000 0
5.375000 0.160000 0
5.500000 0.160000 0
5.625000 0.160000 0
5.750000 0.160000 0
5.875000 0.160000 0
6.000000 0.160000 0
6.125000 0.160000 0
6.250000 0.160000 0
6.375000 0.160000 0
6.500000 0.160000 0
6.625000 0.160000 0
6.750000 0.160000 0
6.875000 0.160000 0
7.000000 0.160000 0
7.125000 0.160000 0
7.250000 0.160000 0
7.375000 0.160000 0
7.500000 0.160000 0
7.625000 0.160000 0
7.750000 0.160000 0
7.875000 0.160000 0
8.000000 0.160000 0
8.125000 0.160000 0
8.250000 0.160000 0
8.375000 0.160000 0
8.500000 0.160000 0
8.625000 0.160000 0
8.750000 0.160000 0
8.875000 0.160000 0
9.000000 0.160000 0
9.125000 0.160000 0
9.250000 0.160000 0
9.375000 0.160000 0
9.500000 0.160000 0
9.625000 0.160000 0
9.750000 0.160000 0
9.875000 0.160000 0
10.000000 0.160000 0
0.000000 0.240000 0
0.125000 0.240000 0
0.250000 0.240000 0
0.375000 0.240000 0
0.500000 0.240000 0
0.625000 0.240000 0
0.750000 0.240000 0
0.875000 0.240000 0
1.000000 0.240000 0
1.125000 0.240000 0
1.250000 0.240000 0
1.375000 0.240000 0
1.500000 0.240000 0
1.625000 0.240000 0
1.750000 0.240000 0
1.875000 0.240000 0
2.000000 0.240000 0
2.125000 0.240000 0
2.250000 0.240000 0
2.375000 0.240000 0
2.500000 0.240000 0
2.625000 0.240000 0
2.750000 0.240000 0
2.875000 0.240000 0
3.000000 0.240000 0
3.125000 0.240000 0
3.250000 0.240000 0
3.375000 0.240000 0
3.500000 0.240000 0
3.625000 0.240000 0
3.750000 0.240000 0
3.875000 0.240000 0
4.000000 0.240000 0
4.125000 0.240000 0
4.250000 0.240000 0
4.375000 0.240000 0
4.500000 0.240000 0
4.625000 0.240000 0
4.750000 0.240000 0
4.875000 0.240000 0
5.000000 0.240000 0
5.125000 0.240000 0
5.250000 0.240000 0
5.375000 0.240000 0
5.500000 0.240000 0
5.625000 0.240000 0
5.750000 0.240000 0
5.875000 0.240000 0
6.000000 0.240000 0
6.125000 0.240000 0
6.250000 0.240000 0
6.375000 0.240000 0
6.500000 0.240000 0
6.625000 0.240000 0
6.750000 0.240000 0
6.875000 0.240000 0
7.000000 0.240000 0
7.125000 0.240000 0
7.250000 0.240000 0
7.375000 0.240000 0
7.500000 0.240000 0
7.625000 0.240000 0
7.750000 0.240000 0
7.875000 0.240000 0
8.000000 0.240000 0
8.125000 0.240000 0
8.250000 0.240000 0
8.375000 0.240000 0
8.500000 0.240000 0
8.625000 0.240000 0
8.750000 0.240000 0
8.875000 0.240000 0
9.000000 0.240000 0
9.125000 0.240000 0
9.250000 0.240000 0
9.375000 0.240000 0
9.500000 0.240000 0
9.625000 0.240000 0
9.750000 0.240000 0
9.875000 0.240000 0
10.000000 0.240000 0
0.000000 0.320000 0
0.125000 0.320000 0
0.250000 0.320000 0
0.375000 0.320000 0
0.500000 0.320000 0
0.625000 0.320000 0
0.750000 0.320000 0
0.875000 0.320000 0
1.000000 0.320000 0
1.125000 0.320000 0
1.250000 0.320000 0
1.375000 0.320000 0
1.500000 0.320000 0
1.625000 0.320000 0
1.750000 0.320000 0
1.875000 0.320000 0
2.000000 0.320000 0
2.125000 0.320000 0
2.250000 0.320000 0
2.375000 0.320000 0
2.500000 0.320000 0
2.625000 0.320000 0
2.750000 0.320000 0
2.875000 0.320000 0
3.000000 0.320000 0
3.125000 0.320000 0
3.250000 0.320000 0
3.375000 0.320000 0
3.500000 0.320000 0
3.625000 0.320000 0
3.750000 0.320000 0
3.875000 0.320000 0
4.000000 0.320000 0
4.125000 0.320000 0
4.250000 0.320000 0
4.375000 0.320000 0
4.500000 0.320000 0
4.625000 0.320000 0
4.750000 0.320000 0
4.875000 0.320000 0
5.000000 0.320000 0
5.125000 0.320000 0
5.250000 0.320000 0
5.375000 0.320000 0
5.500000 0.320000 0
5.625000 0.320000 0
5.750000 0.320000 0
5.875000 0.320000 0
6.000000 0.320000 0
6.125000 0.320000 0
6.250000 0.320000 0
6.375000 0.320000 0
6.500000 0.320000 0
6.625000 0.320000 0
6.750000 0.320000 0
6.875000 0.320000 0
7.000000 0.320000 0
7.125000 0.320000 0
7.250000 0.320000 0
7.375000 0.320000 0
7.500000 0.320000 0
7.625000 0.320000 0
7.750000 0.320000 0
7.875000 0.320000 0
8.000000 0.320000 0
8.125000 0.320000 0
8.250000 0.320000 0
8.375000 0.320000 0
8.500000 0.320000 0
8.625000 0.320000 0
8.750000 0.320000 0
8.875000 0.320000 0
9.000000 0.320000 0
9.125000 0.320000 0
9.250000 0.320000 0
9.375000 0.320000 0
9.500000 0.320000 0
9.625000 0.320000 0
9.750000 0.320000 0
9.875000 0.320000 0
10.000000 0.320000 0
0.000000 0.400000 0
0.125000 0.400000 0
0.250000 0.400000 0
0.375000 0.400000 0
0.500000 0.400000 0
0.625000 0.400000 0
0.750000 0.400000 0
0.875000 0.400000 0
1.000000 0.400000 0
1.125000 0.400000 0
1.250000 0.400000 0
1.375000 0.400000 0
1.500000 0.400000 0
1.625000 0.400000 0
1.750000 0.400000 0
1.875000 0.400000 0
2.000000 0.400000 0
2.125000 0.400000 0
2.250000 0.400000 0
2.375000 0.400000 0
2.500000 0.400000 0
2.625000 0.400000 0
2.750000 0.400000 0
2.875000 0.400000 0
3.000000 0.400000 0
3.125000 0.400000 0
3.250000 0.400000 0
3.375000 0.400000 0
3.500000 0.400000 0
3.625000 0.400000 0
3.750000 0.400000 0
3.875000 0.400000 0
4.000000 0.400000 0
4.125000 0.400000 0
4.250000 0.400000 0
4.375000 0.400000 0
4.500000 0.400000 0
4.625000 0.400000 0
4.750000 0.400000 0
4.875000 0.400000 0
5.000000 0.400000 0
5.125000 0.400000 0
5.250000 0.400000 0
5.375000 0.400000 0
5.500000 0.400000 0
5.625000 0.400000 0
5.750000 0.400000 0
5.875000 0.400000 0
6.000000 0.400000 0
6.125000 0.400000 0
6.250000 0.400000 0
6.375000 0.400000 0
6.500000 0.400000 0
6.625000 0.400000 0
6.750000 0.400000 0
6.875000 0.400000 0
7.000000 0.400000 0
7.125000 0.400000 0
7.250000 0.400000 0
7.375000 0.400000 0
7.500000 0.400000 0
7.625000 0.400000 0
7.750000 0.400000 0
7.875000 0.400000 0
8.000000 0.400000 0
8.125000 0.400000 0
8.250000 0.400000 0
8.375000 0.400000 0
8.500000 0.400000 0
8.625000 0.400000 0
8.750000 0.400000 0
8.875000 0.400000 0
9.000000 0.400000 0
9.125000 0.400000 0
9.250000 0.400000 0
9.375000 0.400000 0
9.500000 0.400000 0
9.625000 0.400000 0
9.750000 0.400000 0
9.875000 0.400000 0
10.000000 0.400000 0
0.000000 0.480000 0
0.125000 0.480000 0
0.250000 0.480000 0
0.375000 0.480000 0
0.500000 0.480000 0
[...]
POINT_DATA 2106 

VECTORS velocity float
0.500000 0.000000 0
-0.000004 0.000000 0
-0.000006 0.000000 0
-0.000008 0.000000 0
-0.000011 0.000000 0
-0.000014 0.000000 0
-0.000017 0.000000 0
-0.000020 0.000000 0
-0.000023 0.000000 0
-0.000027 0.000000 0
-0.000030 0.000000 0
-0.000034 0.000000 0
-0.000039 0.000000 0
-0.000045 0.000000 0
-0.000050 0.000000 0
0.000011 0.000000 0
-0.000026 0.000000 0
-0.000446 0.000000 0
-0.000499 0.000000 0
-0.000333 0.000000 0
-0.000413 0.000000 0
-0.000645 0.000000 0
-0.000774 0.000000 0
-0.000745 0.000000 0
-0.000625 0.000000 0
-0.000472 0.000000 0
-0.000312 0.000000 0
-0.000179 0.000000 0
-0.000123 0.000000 0
-0.000169 0.000000 0
-0.000293 0.000000 0
-0.000433 0.000000 0
-0.000612 0.000000 0
-0.001471 0.000000 0
-0.001420 0.000000 0
0.000000 0.000000 0
0.000000 0.000000 0
0.000000 0.000000 0
0.000000 0.000000 0
0.000000 0.000000 0
-0.000867 0.000000 0
-0.000078 0.000000 0
0.000060 0.000000 0
0.000150 0.000000 0
0.000274 0.000000 0
0.000326 0.000000 0
0.000274 0.000000 0
0.000177 0.000000 0
0.000126 0.000000 0
0.000203 0.000000 0
0.000419 0.000000 0
0.000698 0.000000 0
0.000915 0.000000 0
0.000921 0.000000 0
0.000420 0.000000 0
-0.000219 0.000000 0
0.000067 0.000000 0
-0.001397 0.000000 0
-0.001968 0.000000 0
-0.001045 0.000000 0
-0.000758 0.000000 0
-0.000912 0.000000 0
-0.000936 0.000000 0
-0.000868 0.000000 0
-0.000853 0.000000 0
-0.000928 0.000000 0
-0.001007 0.000000 0
-0.000978 0.000000 0
-0.000761 0.000000 0
-0.000330 0.000000 0
0.000293 0.000000 0
0.001044 0.000000 0
0.001820 0.000000 0
0.002493 0.000000 0
0.002918 0.000000 0
0.002975 0.000000 0
0.002631 0.000000 0
0.001873 0.000000 0
0.000974 0.000000 0
0.000184 0.000000 0
-0.000072 0.000000 0
1.000000 -0.001828 0
1.007174 -0.006235 0
1.022530 -0.011892 0
1.047372 -0.018637 0
1.083445 -0.026773 0
1.133156 -0.036763 0
1.199743 -0.049430 0
1.288047 -0.064653 0
1.401631 -0.086827 0
1.556811 -0.118030 0
1.767395 -0.169687 0
2.076392 -0.237694 0
2.496560 -0.336134 0
3.111295 -0.452267 0
3.926823 -0.660066 0
5.273986 -0.699715 0
6.151238 -0.466676 0
6.647623 -0.286647 0
6.960503 -0.192726 0
7.196476 -0.149869 0
7.400887 -0.125969 0
7.573834 -0.103603 0
7.713397 -0.079797 0
7.816390 -0.053929 0
7.879982 -0.025479 0
7.900281 0.007785 0
7.868777 0.050998 0
7.767173 0.113012 0
7.559562 0.202223 0
7.198271 0.326243 0
6.621581 0.472127 0
5.777990 0.629134 0
4.655448 0.831041 0
3.267719 0.995159 0
1.651233 0.996928 0
0.000000 -0.000910 0
0.000000 -0.477653 0
0.000000 0.000000 0
0.000000 -0.900944 0
0.000000 0.000556 0
-2.133767 1.311958 0
-3.148906 0.556374 0
-3.470843 0.204769 0
-3.639936 0.089719 0
-3.742016 0.048146 0
-3.804208 0.025412 0
-3.835342 0.009262 0
-3.842103 -0.003743 0
-3.825946 -0.015346 0
-3.787329 -0.026831 0
-3.726583 -0.042722 0
-3.634500 -0.080902 0
-3.455057 -0.195516 0
-3.018369 -0.536347 0
-1.764652 -1.354189 0
1.204300 -2.857427 0
6.028823 -2.842880 0
8.479942 -1.362905 0
9.572481 -0.568566 0
9.936266 -0.190121 0
10.012395 -0.050347 0
10.030885 -0.012549 0
10.035995 -0.003559 0
10.041722 -0.002123 0
10.047372 -0.002387 0
10.054383 -0.003876 0
10.064489 -0.005806 0
10.077518 -0.007024 0
10.091768 -0.006688 0
10.104523 -0.004431 0
10.112811 -0.000343 0
10.113986 0.005102 0
10.106188 0.011009 0
10.089280 0.016240 0
10.064644 0.019552 0
10.035697 0.019706 0
10.008119 0.016165 0
9.988064 0.010193 0
9.977391 0.004266 0
9.973828 0.000928 0
9.972393 0.000065 0
1.000000 -0.004589 0
1.008245 -0.014415 0
1.024678 -0.025724 0
1.050284 -0.038983 0
1.086610 -0.054899 0
1.135860 -0.074428 0
1.201161 -0.099127 0
1.286755 -0.129206 0
1.398477 -0.172006 0
1.545064 -0.234087 0
1.751473 -0.332529 0
2.031299 -0.466663 0
2.437074 -0.662335 0
3.018540 -0.915366 0
3.862627 -1.384120 0
5.371624 -1.423623 0
6.033952 -0.879125 0
6.354488 -0.517928 0
6.546478 -0.351264 0
6.718718 -0.281843 0
6.888664 -0.241507 0
7.034857 -0.200004 0
7.153681 -0.155234 0
7.243596 -0.106613 0
7.303190 -0.053688 0
7.331281 0.007173 0
7.324501 0.085191 0
7.273346 0.197900 0
7.154331 0.364099 0
6.907244 0.600310 0
6.422904 0.908981 0
5.683141 1.258327 0
4.623962 1.606575 0
3.353848 1.922700 0
1.797999 2.091342 0
0.000000 0.000201 0
0.000000 -1.056590 0
0.000000 0.000000 0
0.000000 -1.365320 0
0.000000 0.000291 0
-1.135240 2.015299 0
-1.636498 0.855728 0
-1.756166 0.314259 0
-1.964994 0.173550 0
-2.069605 0.105134 0
-2.131251 0.059728 0
-2.157162 0.024252 0
-2.150013 -0.006014 0
-2.111426 -0.035056 0
-2.043462 -0.063593 0
-1.954296 -0.097812 0
-1.866253 -0.173778 0
-1.743361 -0.394325 0
-1.433464 -1.081860 0
0.045614 -2.702509 0
2.477442 -4.987826 0
5.794878 -4.656413 0
7.126838 -2.267943 0
7.697654 -0.932050 0
7.766021 -0.281548 0
7.691884 -0.060560 0
7.675095 -0.015108 0
7.667408 -0.006940 0
7.671364 -0.007285 0
7.675296 -0.008107 0
7.680294 -0.010959 0
7.689251 -0.014810 0
7.702577 -0.017462 0
7.719493 -0.017288 0
7.738002 -0.013472 0
7.755558 -0.006061 0
7.769527 0.004234 0
7.776967 0.015807 0
7.776591 0.026584 0
7.767342 0.034289 0
7.749375 0.036171 0
7.725945 0.030480 0
7.704188 0.019661 0
7.687365 0.009107 0
7.670217 0.003194 0
7.664948 0.001532 0
1.000000 -0.007103 0
1.007439 -0.022027 0
1.022726 -0.038796 0
1.046755 -0.058272 0
1.080878 -0.081540 0
1.127047 -0.110075 0
1.188198 -0.146002 0
1.267856 -0.190934 0
1.375507 -0.252144 0
1.508421 -0.343946 0
1.696347 -0.480877 0
1.947102 -0.676478 0
2.299382 -0.967967 0
2.816059 -1.364620 0
3.631793 -2.166039 0
5.220145 -2.089363 0
5.453210 -1.095707 0
5.402160 -0.614663 0
5.344808 -0.425832 0
5.358973 -0.368867 0
5.461766 -0.328297 0
5.559562 -0.273213 0
5.643287 -0.213389 0
5.712433 -0.149614 0
5.764956 -0.081596 0
5.801627 -0.005854 0
5.825271 0.088077 0
5.839946 0.221922 0
5.848456 0.436529 0
5.819414 0.794357 0
5.569049 1.255554 0
5.044834 1.780458 0
4.235120 2.321789 0
3.088148 2.803775 0
1.694046 3.143391 0
0.000000 -0.000193 0
0.000000 -1.627656 0
0.000000 0.000000 0
0.000000 -1.627942 0
0.000000 0.000111 0
-0.632865 2.359317 0
-0.821029 0.953766 0
-1.040664 0.415006 0
-1.247196 0.290320 0
-1.410990 0.154551 0
-1.500137 0.081448 0
-1.530545 0.021269 0
-1.501312 -0.033015 0
-1.415360 -0.083539 0
-1.275377 -0.127394 0
-1.082793 -0.156136 0
-0.800888 -0.215901 0
-0.692384 -0.472501 0
-0.440704 -1.681292 0
0.866085 -3.857170 0
2.561695 -6.536957 0
5.137323 -5.818494 0
4.872699 -2.580682 0
4.767499 -0.977644 0
4.407732 -0.186430 0
3.946720 0.007844 0
3.884642 0.003114 0
3.822942 -0.001172 0
3.835796 -0.007172 0
3.841377 -0.008103 0
3.852481 -0.012809 0
3.880021 -0.020070 0
3.921517 -0.026380 0
3.972871 -0.029361 0
4.026959 -0.027514 0
4.078143 -0.020520 0
4.121594 -0.008602 0
4.153548 0.006486 0
4.171196 0.022399 0
4.181144 0.036969 0
4.186406 0.046198 0
4.191402 0.045083 0
4.210094 0.034882 0
4.250203 0.026006 0
4.271299 0.015274 0
4.268724 0.006601 0
1.000000 -0.009349 0
1.006474 -0.028958 0
1.020293 -0.050885 0
1.042294 -0.076200 0
1.073575 -0.106285 0
1.115752 -0.143112 0
1.171283 -0.189244 0
1.243525 -0.249083 0
1.340015 -0.325967 0
1.459495 -0.439423 0
1.620330 -0.613284 0
1.826603 -0.852604 0
2.095042 -1.218466 0
2.476676 -1.768108 0
3.105225 -2.922735 0
4.370479 -2.589329 0
3.643945 -0.995614 0
3.049477 -0.448550 0
2.683536 -0.323623 0
2.335205 -0.356696 0
2.906578 -0.369883 0
3.197584 -0.316177 0
3.384431 -0.253071 0
3.532741 -0.184480 0
3.637823 -0.110772 0
3.706526 -0.031428 0
3.749184 0.060668 0
3.780609 0.183062 0
3.830243 0.377240 0
3.963116 0.779131 0
4.111394 1.404713 0
3.961696 2.112042 0
3.479764 2.858856 0
2.604111 3.548987 0
1.467033 4.067757 0
0.000000 -0.000568 0
0.000000 -2.141549 0
0.000000 0.000000 0
0.000000 -1.770156 0
0.000000 0.000488 0
-0.348670 2.540758 0
-0.498537 1.116719 0
-0.888745 0.587006 0
-1.048759 0.410559 0
-1.250320 0.267015 0
-1.373051 0.136243 0
-1.413447 0.025004 0
-1.379843 -0.079733 0
-1.272559 -0.179655 0
-1.091441 -0.276436 0
-0.762693 -0.401485 0
-0.405472 -0.423640 0
-0.249568 -0.624843 0
0.165046 -2.079281 0
0.995615 -4.624045 0
2.193743 -7.721419 0
3.884382 -6.135457 0
1.673789 -2.031257 0
0.448857 -0.634472 0
0.146218 0.243749 0
0.196332 0.274216 0
0.698546 0.064108 0
0.192257 0.024321 0
0.797004 -0.019084 0
0.613902 -0.018787 0
0.721095 -0.035693 0
0.771379 -0.058995 0
0.832614 -0.076888 0
0.897277 -0.084772 0
0.963133 -0.080847 0
1.028261 -0.066628 0
1.085775 -0.044027 0
1.139632 -0.015939 0
1.171545 0.008921 0
1.210711 0.024553 0
1.252415 0.029605 0
1.253551 0.015319 0
1.293233 -0.017973 0
1.461855 -0.030066 0
1.561805 -0.008661 0
1.564326 0.004771 0
1.000000 -0.011245 0
1.005109 -0.035013 0
1.017095 -0.061720 0
1.036618 -0.092372 0
1.064401 -0.128552 0
1.101600 -0.172608 0
1.150048 -0.227775 0
1.212690 -0.298921 0
1.292298 -0.390364 0
1.398348 -0.523347 0
1.526955 -0.715826 0
1.655930 -0.980293 0
1.845427 -1.384013 0
2.054249 -2.011136 0
2.310650 -3.378072 0
2.006037 -2.434143 0
-0.006900 -0.250265 0
-0.004819 0.000000 0
-0.000434 0.031302 0
0.126690 -0.511614 0
1.193985 -0.880219 0
1.703931 -0.579039 0
2.096904 -0.427889 0
2.352707 -0.311784 0
2.518797 -0.192818 0
2.610442 -0.077124 0
2.642738 0.040664 0
2.623718 0.170045 0
2.566260 0.319725 0
2.562364 0.614421 0
2.777034 1.256463 0
2.875618 2.184701 0
2.661803 3.190644 0
2.079211 4.091923 0
1.185291 4.810023 0
0.000000 -0.000649 0
0.000000 -2.567014 0
0.000000 0.000000 0
0.000000 -1.849942 0
0.000000 0.001259 0
-0.199971 2.678380 0
-0.390741 1.299414 0
-0.728642 0.767148 0
-0.952775 0.521727 0
-1.110036 0.362097 0
-1.219825 0.185850 0
-1.257966 0.025616 0
-1.229272 -0.123183 0
-1.123904 -0.268117 0
-0.917729 -0.453709 0
-0.675167 -0.595156 0
-0.334152 -0.544301 0
-0.214530 -0.837634 0
0.290220 -2.478209 0
0.876414 -5.155537 0
1.535301 -8.385769 0
1.776687 -5.485724 0
0.000050 -0.381947 0
0.000646 0.000000 0
0.001004 -0.024815 0
-0.625175 -0.345647 0
-0.503704 0.005721 0
-0.037843 -0.064186 0
-0.184836 -0.277026 0
-0.026664 0.040477 0
0.012960 -0.113596 0
0.044193 -0.091443 0
0.074289 -0.106956 0
0.096885 -0.112895 0
0.120038 -0.111345 0
0.151366 -0.099013 0
0.188688 -0.079881 0
0.230854 -0.048408 0
0.279248 -0.023093 0
0.306720 -0.014789 0
0.348908 0.018779 0
0.336455 0.018957 0
0.366531 -0.098434 0
0.506378 -0.145882 0
0.595050 -0.050309 0
0.597276 0.003433 0
1.000000 -0.012618 0
1.002963 -0.039897 0
1.012840 -0.071050 0
1.029613 -0.106475 0
1.053477 -0.147873 0
1.084996 -0.197925 0
1.125398 -0.260341 0
1.176428 -0.340122 0
1.239795 -0.444787 0
1.321885 -0.589603 0
1.408766 -0.778136 0
1.498752 -1.056426 0
1.596751 -1.473390 0
1.634188 -2.065850 0
1.452763 -2.891878 0
0.160170 0.000164 0
-1.133493 1.683939 0
-0.686079 0.000000 0
-0.426169 0.867435 0
0.000000 0.000579 0
0.886227 -1.366495 0
1.350751 -0.894045 0
1.745262 -0.668287 0
2.023389 -0.454491 0
2.188092 -0.275721 0
2.267975 -0.110749 0
2.288930 0.052172 0
2.254313 0.232008 0
2.155701 0.416507 0
1.989621 0.644237 0
1.974054 1.204231 0
2.062349 2.185790 0
2.001074 3.368556 0
1.613528 4.493956 0
0.927513 5.398453 0
0.000000 -0.000543 0
0.000000 -2.900110 0
0.000000 0.000000 0
0.000000 -1.896654 0
0.000000 0.001971 0
-0.117248 2.790832 0
-0.322444 1.455068 0
-0.579281 0.946707 0
-0.865180 0.654651 0
-0.991789 0.437927 0
-1.098581 0.230918 0
-1.134287 0.031050 0
-1.119730 -0.165533 0
-0.979182 -0.379042 0
-0.846923 -0.563628 0
-0.693617 -0.774975 0
-0.319730 -0.718448 0
-0.193125 -1.024441 0
0.286119 -2.777486 0
0.633364 -5.420897 0
0.888215 -8.297594 0
0.244446 0.000090 0
0.057514 4.890676 0
1.045452 0.000000 0
1.049831 0.060418 0
0.000000 0.000404 0
-0.108496 -0.321950 0
0.065743 -0.179756 0
-0.135664 -0.026241 0
0.038322 -0.145378 0
0.015527 -0.081043 0
0.025509 -0.098247 0
0.025122 -0.110612 0
0.019574 -0.114053 0
0.012992 -0.115716 0
0.010462 -0.110566 0
0.014796 -0.094901 0
0.024359 -0.073899 0
0.042625 -0.039635 0
0.026101 -0.020031 0
-0.011577 0.010573 0
-0.044182 0.004038 0
-0.008898 -0.126726 0
-0.000408 -0.176320 0
-0.002300 -0.066837 0
0.000295 0.002000 0
1.000000 -0.013140 0
1.000737 -0.043229 0
1.008985 -0.078775 0
1.022586 -0.118378 0
1.041940 -0.163996 0
1.067103 -0.218636 0
1.098656 -0.286291 0
1.137247 -0.372134 0
1.183372 -0.483455 0
1.236582 -0.631488 0
1.292082 -0.829020 0
1.351698 -1.100602 0
1.363618 -1.470690 0
1.258068 -1.918983 0
0.890495 -2.434700 0
0.000000 0.000190 0
0.000000 1.356807 0
0.000000 0.000000 0
0.000000 1.097697 0
0.000000 0.000418 0
0.593415 -1.731877 0
1.029223 -1.128821 0
1.296604 -0.858376 0
1.592196 -0.595195 0
1.744284 -0.349353 0
1.799475 -0.141660 0
1.804766 0.049409 0
1.760680 0.255312 0
1.667453 0.489128 0
1.526228 0.730676 0
1.436209 1.209917 0
1.486027 2.167410 0
1.468274 3.477891 0
1.230270 4.779002 0
0.704222 5.842681 0
0.000000 -0.000523 0
0.000000 -3.160496 0
0.000000 0.000000 0
0.000000 -1.923751 0
0.000000 0.002490 0
-0.067274 2.884745 0
-0.266257 1.595115 0
-0.504261 1.114498 0
-0.758751 0.785732 0
-0.880722 0.511474 0
-0.985646 0.277048 0
-1.023526 0.039151 0
-0.994468 -0.222450 0
-0.912057 -0.442714 0
-0.815485 -0.636471 0
-0.611419 -0.932560 0
-0.383455 -0.864616 0
-0.200135 -1.225377 0
0.183833 -3.007163 0
0.410030 -5.540878 0
0.477637 -8.136862 0
0.000000 -0.000189 0
0.000000 4.691576 0
0.000000 0.000000 0
0.000000 0.261976 0
0.000000 0.000416 0
-0.030154 -0.046521 0
-0.113216 -0.046800 0
-0.040523 -0.259478 0
-0.089244 -0.056287 0
-0.094906 -0.105397 0
-0.089046 -0.097585 0
-0.102079 -0.103160 0
-0.118900 -0.105133 0
-0.140338 -0.105515 0
-0.162533 -0.100169 0
-0.191533 -0.088776 0
-0.215743 -0.066220 0
-0.252737 -0.024209 0
-0.309106 0.019899 0
-0.409868 0.063759 0
-0.486386 0.017241 0
-0.531193 -0.126451 0
-0.582519 -0.150105 0
-0.662850 -0.050761 0
-0.660554 0.000181 0
1.000000 -0.013088 0
0.999421 -0.045646 0
1.004816 -0.085032 0
1.015409 -0.127565 0
1.029878 -0.176362 0
1.048232 -0.234222 0
1.070638 -0.305232 0
1.096903 -0.394339 0
1.126114 -0.508361 0
1.156830 -0.659177 0
1.186995 -0.851810 0
1.195071 -1.102208 0
1.158358 -1.413465 0
0.997894 -1.763050 0
0.649924 -2.086714 0
0.000000 0.000171 0
0.000000 1.114029 0
0.000000 0.000000 0
0.000000 1.247224 0
0.000000 0.000584 0
0.411703 -2.025196 0
0.756401 -1.344085 0
1.027109 -1.028590 0
1.296465 -0.741005 0
1.413788 -0.408379 0
1.437867 -0.149457 0
1.425263 0.077002 0
1.360980 0.319889 0
1.251805 0.566558 0
1.132575 0.792233 0
1.033129 1.229960 0
1.062792 2.165269 0
1.068444 3.532242 0
0.917755 4.982950 0
0.519833 6.185826 0
0.000000 -0.000401 0
0.000000 -3.350669 0
0.000000 0.000000 0
0.000000 -1.939121 0
0.000000 0.002559 0
-0.036036 2.961236 0
-0.212439 1.734740 0
-0.440320 1.261903 0
-0.619490 0.895587 0
-0.779563 0.583139 0
-0.888833 0.322313 0
-0.938844 0.036696 0
-0.909721 -0.236873 0
-0.880405 -0.493591 0
-0.754245 -0.756037 0
-0.576387 -1.051474 0
-0.392988 -0.981670 0
-0.171829 -1.387506 0
0.091892 -3.167992 0
0.258714 -5.608932 0
0.262201 -8.035175 0
0.000000 -0.000388 0
0.000000 4.584510 0
0.000000 0.000000 0
0.000000 0.040848 0
0.000000 0.000132 0
0.027968 -0.249494 0
0.050342 -0.173121 0
-0.124512 -0.041584 0
-0.120158 -0.110574 0
-0.133047 -0.081171 0
-0.142612 -0.093658 0
-0.147494 -0.091507 0
-0.158393 -0.089569 0
-0.168386 -0.087793 0
-0.191827 -0.077803 0
-0.243171 -0.060848 0
-0.302419 -0.034730 0
-0.348380 0.020116 0
-0.376886 0.080531 0
-0.388735 0.124031 0
-0.380785 0.081685 0
-0.403171 -0.065202 0
-0.412554 -0.092061 0
-0.520679 -0.016896 0
-0.520019 -0.000868 0
1.000000 -0.012768 0
0.999237 -0.046309 0
1.000561 -0.089007 0
1.008207 -0.134417 0
1.017131 -0.185002 0
1.028689 -0.244721 0
1.042600 -0.317440 0
1.057847 -0.407638 0
1.072888 -0.521808 0
1.085645 -0.670451 0
1.088692 -0.853493 0
1.067213 -1.082274 0
0.998358 -1.344496 0
0.813831 -1.593584 0
0.479041 -1.796047 0
0.000000 0.000095 0
0.000000 0.940760 0
0.000000 0.000000 0
0.000000 1.361238 0
0.000000 0.000471 0
0.298635 -2.215973 0
0.507105 -1.522680 0
0.741922 -1.204016 0
0.902721 -0.842669 0
1.025269 -0.439850 0
1.038551 -0.149003 0
1.004687 0.098617 0
0.936657 0.366326 0
0.870832 0.635309 0
0.698500 0.870629 0
0.671552 1.254579 0
0.747439 2.144809 0
0.773945 3.570715 0
0.666258 5.130114 0
0.386827 6.430045 0
0.000000 -0.000280 0
0.000000 -3.492947 0
0.000000 0.000000 0
0.000000 -1.946835 0
0.000000 0.002469 0
-0.011656 3.020706 0
-0.157303 1.853856 0
-0.347031 1.375011 0
-0.497490 1.002847 0
-0.674049 0.683854 0
-0.776155 0.378988 0
-0.843712 0.052519 0
-0.853932 -0.259851 0
-0.813116 -0.542219 0
-0.685139 -0.831043 0
-0.584176 -1.163765 0
-0.417379 -1.123534 0
-0.158378 -1.535701 0
0.045731 -3.282710 0
0.166286 -5.649876 0
0.152272 -7.971285 0
0.000000 -0.000576 0
0.000000 4.523381 0
0.000000 0.000000 0
0.000000 0.279614 0
0.000000 0.000152 0
-0.040626 -0.078743 0
-0.098781 0.050786 0
-0.052736 -0.150360 0
-0.125875 -0.050826 0
-0.120781 -0.091028 0
-0.123908 -0.088341 0
-0.115963 -0.093061 0
-0.111576 -0.091763 0
-0.104511 -0.084118 0
-0.116271 -0.052309 0
-0.145286 -0.018000 0
-0.184103 0.001112 0
-0.202508 0.023448 0
-0.173219 0.045725 0
-0.097709 0.066252 0
0.047204 0.026478 0
-0.009951 -0.106120 0
-0.294778 -0.074901 0
-0.276902 0.018015 0
-0.277736 -0.000591 0
1.000000 -0.012599 0
0.999450 -0.046003 0
0.999354 -0.090772 0
1.001002 -0.138170 0
1.005189 -0.189471 0
1.010607 -0.250521 0
1.017404 -0.323892 0
1.023495 -0.413722 0
1.027896 -0.526151 0
1.029100 -0.669290 0
1.001653 -0.840012 0
0.967776 -1.044393 0
0.863278 -1.251300 0
0.657573 -1.430687 0
0.373770 -1.565861 0
0.000000 0.000017 0
0.000000 0.807287 0
0.000000 0.000000 0
0.000000 1.437996 0
0.000000 0.000230 0
0.204162 -2.349742 0
0.327878 -1.627788 0
0.425636 -1.281783 0
0.467048 -0.922347 0
0.519826 -0.495310 0
0.549548 -0.136284 0
0.537508 0.142215 0
0.473498 0.405557 0
0.437357 0.718979 0
0.266595 0.919773 0
0.342429 1.198639 0
0.498878 2.099738 0
0.560556 3.584198 0
0.498762 5.230706 0
0.289794 6.612232 0
0.000000 -0.000236 0
0.000000 -3.598074 0
0.000000 0.000000 0
0.000000 -1.946764 0
0.000000 0.002376 0
0.015435 3.061910 0
-0.089008 1.949380 0
-0.243655 1.479623 0
-0.388369 1.104878 0
-0.548033 0.761486 0
-0.639282 0.430897 0
-0.696583 0.086472 0
-0.718575 -0.256455 0
-0.699290 -0.601619 0
-0.569158 -0.902559 0
-0.519788 -1.222840 0
-0.423096 -1.254181 0
-0.159466 -1.683896 0
0.023907 -3.375777 0
0.118755 -5.677119 0
0.098889 -7.928752 0
0.000000 -0.000767 0
0.000000 4.486677 0
0.000000 0.000000 0
0.000000 0.014942 0
0.000000 0.000225 0
-0.214387 -0.186277 0
0.045401 -0.165373 0
-0.097351 -0.024245 0
-0.062550 -0.067026 0
-0.076661 -0.082432 0
-0.072227 -0.096743 0
-0.083464 -0.099401 0
-0.102919 -0.096900 0
-0.135555 -0.084789 0
-0.159499 -0.051708 0
-0.143418 -0.017437 0
-0.119380 0.001891 0
-0.113986 0.013149 0
-0.116995 0.013458 0
-0.108519 -0.017041 0
-0.040143 0.025518 0
-0.064556 0.153665 0
-0.375740 0.078786 0
-0.315795 -0.027805 0
-0.316195 0.000249 0
1.000000 -0.012415 0
0.999190 -0.045894 0
0.998406 -0.090000 0
0.996244 -0.138150 0
0.996739 -0.191148 0
0.996980 -0.252538 0
0.998234 -0.325687 0
0.996264 -0.414353 0
0.994141 -0.525394 0
0.977769 -0.653654 0
0.936800 -0.814245 0
0.857970 -0.993713 0
0.745196 -1.145965 0
0.549589 -1.280298 0
0.301714 -1.375199 0
0.000000 -0.000054 0
0.000000 0.701398 0
0.000000 0.000000 0
0.000000 1.491295 0
0.000000 -0.000136 0
0.138137 -2.425814 0
0.169561 -1.664422 0
0.169473 -1.293085 0
0.109309 -0.902950 0
0.078434 -0.492649 0
0.087450 -0.160319 0
0.091563 0.147289 0
0.056537 0.430423 0
-0.012267 0.767727 0
-0.090899 0.931383 0
-0.058215 1.105918 0
0.321888 2.005208 0
0.423775 3.570790 0
0.381273 5.303402 0
0.225177 6.749253 0
0.000000 -0.000260 0
0.000000 -3.678396 0
0.000000 0.000000 0
0.000000 -1.937203 0
0.000000 0.002223 0
0.047064 3.077671 0
-0.012286 2.019674 0
-0.128956 1.566601 0
-0.245820 1.197650 0
-0.387874 0.844438 0
-0.474874 0.474060 0
-0.509125 0.103266 0
-0.513825 -0.258119 0
-0.509706 -0.637845 0
-0.451712 -0.945925 0
-0.411627 -1.257245 0
-0.384016 -1.354140 0
-0.137127 -1.821782 0
0.027562 -3.460772 0
0.105061 -5.697865 0
0.079597 -7.895282 0
0.000000 -0.000968 0
0.000000 4.459701 0
0.000000 0.000000 0
0.000000 0.141922 0
0.000000 -0.000334 0
0.074333 -0.107802 0
-0.101034 -0.024119 0
-0.034976 -0.081273 0