# vtk DataFile Version 2.0
generated by CFD-lab course output (written by Tobias Neckel) 
ASCII

DATASET STRUCTURED_GRID
DIMENSIONS  81 26 1 
POINTS 2106 float

0.000000 0.000000 0
0.125000 0.000000 0
0.250000 0.000000 0
0.375000 0.000000 0
0.500000 0.000000 0
0.625000 0.000000 0
0.750000 0.000000 0
0.875000 0.000000 0
1.000000 0.000000 0
1.125000 0.000000 0
1.250000 0.000000 0
1.375000 0.000000 0
1.500000 0.000000 0
1.625000 0.000000 0
1.750000 0.000000 0
1.875000 0.000000 0
2.000000 0.000000 0
2.125000 0.000000 0
2.250000 0.000000 0
2.375000 0.000000 0
2.500000 0.000000 0
2.625000 0.000000 0
2.750000 0.000000 0
2.875000 0.000000 0
3.000000 0.000000 0
3.125000 0.000000 0
3.250000 0.000000 0
3.375000 0.000000 0
3.500000 0.000000 0
3.625000 0.000000 0
3.750000 0.000000 0
3.875000 0.000000 0
4.000000 0.000000 0
4.125000 0.000000 0
4.250000 0.000000 0
4.375000 0.000000 0
4.500000 0.000000 0
4.625000 0.000000 0
4.750000 0.000000 0
4.875000 0.000000 0
5.000000 0.000000 0
5.125000 0.000000 0
5.250000 0.000000 0
5.375000 0.000000 0
5.500000 0.000000 0
5.625000 0.000000 0
5.750000 0.000000 0
5.875000 0.000000 0
6.000000 0.000000 0
6.125000 0.000000 0
6.250000 0.000000 0
6.375000 0.000000 0
6.500000 0.000000 0
6.625000 0.000000 0
6.750000 0.000000 0
6.875000 0.000000 0
7.000000 0.000000 0
7.125000 0.000000 0
7.250000 0.000000 0
7.375000 0.000000 0
7.500000 0.000000 0
7.625000 0.000000 0
7.750000 0.000000 0
7.875000 0.000000 0
8.000000 0.000000 0
8.125000 0.000000 0
8.250000 0.000000 0
8.375000 0.000000 0
8.500000 0.000000 0
8.625000 0.000000 0
8.750000 0.000000 0
8.875000 0.000000 0
9.000000 0.000000 0
9.125000 0.000000 0
9.250000 0.000000 0
9.375000 0.000000 0
9.500000 0.000000 0
9.625000 0.000000 0
9.750000 0.000000 0
9.875000 0.000000 0
10.000000 0.000000 0
0.000000 0.080000 0
0.125000 0.080000 0
0.250000 0.080000 0
0.375000 0.080000 0
0.500000 0.080000 0
0.625000 0.080000 0
0.750000 0.080000 0
0.875000 0.080000 0
1.000000 0.080000 0
1.125000 0.080000 0
1.250000 0.080000 0
1.375000 0.080000 0
1.500000 0.080000 0
1.625000 0.080000 0
1.750000 0.080000 0
1.875000 0.080000 0
2.000000 0.080000 0
2.125000 0.080000 0
2.250000 0.080000 0
2.375000 0.080000 0
2.500000 0.080000 0
2.625000 0.080000 0
2.750000 0.080000 0
2.875000 0.080000 0
3.000000 0.080000 0
3.125000 0.080000 0
3.250000 0.080000 0
3.375000 0.080000 0
3.500000 0.080000 0
3.625000 0.080000 0
3.750000 0.080000 0
3.875000 0.080000 0
4.000000 0.080000 0
4.125000 0.080000 0
4.250000 0.080000 0
4.375000 0.080000 0
4.500000 0.080000 0
4.625000 0.080000 0
4.750000 0.080000 0
4.875000 0.080000 0
5.000000 0.080000 0
5.125000 0.080000 0
5.250000 0.080000 0
5.375000 0.080000 0
5.500000 0.080000 0
5.625000 0.080000 0
5.750000 0.080000 0
5.875000 0.080000 0
6.000000 0.080000 0
6.125000 0.080000 0
6.250000 0.080000 0
6.375000 0.080000 0
6.500000 0.080000 0
6.625000 0.080000 0
6.750000 0.080000 0
6.875000 0.080000 0
7.000000 0.080000 0
7.125000 0.080000 0
7.250000 0.080000 0
7.375000 0.080000 0
7.500000 0.080000 0
7.625000 0.080000 0
7.750000 0.080000 0
7.875000 0.080000 0
8.000000 0.080000 0
8.125000 0.080000 0
8.250000 0.080000 0
8.375000 0.080000 0
8.500000 0.080000 0
8.625000 0.080000 0
8.750000 0.080000 0
8.875000 0.080000 0
9.000000 0.080000 0
9.125000 0.080000 0
9.250000 0.080000 0
9.375000 0.080000 0
9.500000 0.080000 0
9.625000 0.080000 0
9.750000 0.080000 0
9.875000 0.080000 0
10.000000 0.080000 0
0.000000 0.160000 0
0.125000 0.160000 0
0.250000 0.160000 0
0.375000 0.160000 0
0.500000 0.160000 0
0.625000 0.160000 0
0.750000 0.160000 0
0.875000 0.160000 0
1.000000 0.160000 0
1.125000 0.160000 0
1.250000 0.160000 0
1.375000 0.160000 0
1.500000 0.160000 0
1.625000 0.160000 0
1.750000 0.160000 0
1.875000 0.160000 0
2.000000 0.160000 0
2.125000 0.160000 0
2.250000 0.160000 0
2.375000 0.160000 0
2.500000 0.160000 0
2.625000 0.160000 0
2.750000 0.160000 0
2.875000 0.160000 0
3.000000 0.160000 0
3.125000 0.160000 0
3.250000 0.160000 0
3.375000 0.160000 0
3.500000 0.160000 0
3.625000 0.160000 0
3.750000 0.160000 0
3.875000 0.160000 0
4.000000 0.160000 0
4.125000 0.160000 0
4.250000 0.160000 0
4.375000 0.160000 0
4.500000 0.160000 0
4.625000 0.160000 0
4.750000 0.160000 0
4.875000 0.160000 0
5.000000 0.160000 0
5.125000 0.160000 0
5.250000 0.160000 0
5.375000 0.160000 0
5.500000 0.160000 0
5.625000 0.160000 0
5.750000 0.160000 0
5.875000 0.160000 0
6.000000 0.160000 0
6.125000 0.160000 0
6.250000 0.160000 0
6.375000 0.160000 0
6.500000 0.160000 0
6.625000 0.160000 0
6.750000 0.160000 0
6.875000 0.160000 0
7.000000 0.160000 0
7.125000 0.160000 0
7.250000 0.160000 0
7.375000 0.160000 0
7.500000 0.160000 0
7.625000 0.160000 0
7.750000 0.160000 0
7.875000 0.160000 0
8.000000 0.160000 0
8.125000 0.160000 0
8.250000 0.160000 0
8.375000 0.160000 0
8.500000 0.160000 0
8.625000 0.160000 0
8.750000 0.160000 0
8.875000 0.160000 0
9.000000 0.160000 0
9.125000 0.160000 0
9.250000 0.160000 0
9.375000 0.160000 0
9.500000 0.160000 0
9.625000 0.160000 0
9.750000 0.160000 0
9.875000 0.160000 0
10.000000 0.160000 0
0.000000 0.240000 0
0.125000 0.240000 0
0.250000 0.240000 0
0.375000 0.240000 0
0.500000 0.240000 0
0.625000 0.240000 0
0.750000 0.240000 0
0.875000 0.240000 0
1.000000 0.240000 0
1.125000 0.240000 0
1.250000 0.240000 0
1.375000 0.240000 0
1.500000 0.240000 0
1.625000 0.240000 0
1.750000 0.240000 0
1.875000 0.240000 0
2.000000 0.240000 0
2.125000 0.240000 0
2.250000 0.240000 0
2.375000 0.240000 0
2.500000 0.240000 0
2.625000 0.240000 0
2.750000 0.240000 0
2.875000 0.240000 0
3.000000 0.240000 0
3.125000 0.240000 0
3.250000 0.240000 0
3.375000 0.240000 0
3.500000 0.240000 0
3.625000 0.240000 0
3.750000 0.240000 0
3.875000 0.240000 0
4.000000 0.240000 0
4.125000 0.240000 0
4.250000 0.240000 0
4.375000 0.240000 0
4.500000 0.240000 0
4.625000 0.240000 0
4.750000 0.240000 0
4.875000 0.240000 0
5.000000 0.240000 0
5.125000 0.240000 0
5.250000 0.240000 0
5.375000 0.240000 0
5.500000 0.240000 0
5.625000 0.240000 0
5.750000 0.240000 0
5.875000 0.240000 0
6.000000 0.240000 0
6.125000 0.240000 0
6.250000 0.240000 0
6.375000 0.240000 0
6.500000 0.240000 0
6.625000 0.240000 0
6.750000 0.240000 0
6.875000 0.240000 0
7.000000 0.240000 0
7.125000 0.240000 0
7.250000 0.240000 0
7.375000 0.240000 0
7.500000 0.240000 0
7.625000 0.240000 0
7.750000 0.240000 0
7.875000 0.240000 0
8.000000 0.240000 0
8.125000 0.240000 0
8.250000 0.240000 0
8.375000 0.240000 0
8.500000 0.240000 0
8.625000 0.240000 0
8.750000 0.240000 0
8.875000 0.240000 0
9.000000 0.240000 0
9.125000 0.240000 0
9.250000 0.240000 0
9.375000 0.240000 0
9.500000 0.240000 0
9.625000 0.240000 0
9.750000 0.240000 0
9.875000 0.240000 0
10.000000 0.240000 0
0.000000 0.320000 0
0.125000 0.320000 0
0.250000 0.320000 0
0.375000 0.320000 0
0.500000 0.320000 0
0.625000 0.320000 0
0.750000 0.320000 0
0.875000 0.320000 0
1.000000 0.320000 0
1.125000 0.320000 0
1.250000 0.320000 0
1.375000 0.320000 0
1.500000 0.320000 0
1.625000 0.320000 0
1.750000 0.320000 0
1.875000 0.320000 0
2.000000 0.320000 0
2.125000 0.320000 0
2.250000 0.320000 0
2.375000 0.320000 0
2.500000 0.320000 0
2.625000 0.320000 0
2.750000 0.320000 0
2.875000 0.320000 0
3.000000 0.320000 0
3.125000 0.320000 0
3.250000 0.320000 0
3.375000 0.320000 0
3.500000 0.320000 0
3.625000 0.320000 0
3.750000 0.320000 0
3.875000 0.320000 0
4.000000 0.320000 0
4.125000 0.320000 0
4.250000 0.320000 0
4.375000 0.320000 0
4.500000 0.320000 0
4.625000 0.320000 0
4.750000 0.320000 0
4.875000 0.320000 0
5.000000 0.320000 0
5.125000 0.320000 0
5.250000 0.320000 0
5.375000 0.320000 0
5.500000 0.320000 0
5.625000 0.320000 0
5.750000 0.320000 0
5.875000 0.320000 0
6.000000 0.320000 0
6.125000 0.320000 0
6.250000 0.320000 0
6.375000 0.320000 0
6.500000 0.320000 0
6.625000 0.320000 0
6.750000 0.320000 0
6.875000 0.320000 0
7.000000 0.320000 0
7.125000 0.320000 0
7.250000 0.320000 0
7.375000 0.320000 0
7.500000 0.320000 0
7.625000 0.320000 0
7.750000 0.320000 0
7.875000 0.320000 0
8.000000 0.320000 0
8.125000 0.320000 0
8.250000 0.320000 0
8.375000 0.320000 0
8.500000 0.320000 0
8.625000 0.320000 0
8.750000 0.320000 0
8.875000 0.320000 0
9.000000 0.320000 0
9.125000 0.320000 0
9.250000 0.320000 0
9.375000 0.320000 0
9.500000 0.320000 0
9.625000 0.320000 0
9.750000 0.320000 0
9.875000 0.320000 0
10.000000 0.320000 0
0.000000 0.400000 0
0.125000 0.400000 0
0.250000 0.400000 0
0.375000 0.400000 0
0.500000 0.400000 0
0.625000 0.400000 0
0.750000 0.400000 0
0.875000 0.400000 0
1.000000 0.400000 0
1.125000 0.400000 0
1.250000 0.400000 0
1.375000 0.400000 0
1.500000 0.400000 0
1.625000 0.400000 0
1.750000 0.400000 0
1.875000 0.400000 0
2.000000 0.400000 0
2.125000 0.400000 0
2.250000 0.400000 0
2.375000 0.400000 0
2.500000 0.400000 0
2.625000 0.400000 0
2.750000 0.400000 0
2.875000 0.400000 0
3.000000 0.400000 0
3.125000 0.400000 0
3.250000 0.400000 0
3.375000 0.400000 0
3.500000 0.400000 0
3.625000 0.400000 0
3.750000 0.400000 0
3.875000 0.400000 0
4.000000 0.400000 0
4.125000 0.400000 0
4.250000 0.400000 0
4.375000 0.400000 0
4.500000 0.400000 0
4.625000 0.400000 0
4.750000 0.400000 0
4.875000 0.400000 0
5.000000 0.400000 0
5.125000 0.400000 0
5.250000 0.400000 0
5.375000 0.400000 0
5.500000 0.400000 0
5.625000 0.400000 0
5.750000 0.400000 0
5.875000 0.400000 0
6.000000 0.400000 0
6.125000 0.400000 0
6.250000 0.400000 0
6.375000 0.400000 0
6.500000 0.400000 0
6.625000 0.400000 0
6.750000 0.400000 0
6.875000 0.400000 0
7.000000 0.400000 0
7.125000 0.400000 0
7.250000 0.400000 0
7.375000 0.400000 0
7.500000 0.400000 0
7.625000 0.400000 0
7.750000 0.400000 0
7.875000 0.400000 0
8.000000 0.400000 0
8.125000 0.400000 0
8.250000 0.400000 0
8.375000 0.400000 0
8.500000 0.400000 0
8.625000 0.400000 0
8.750000 0.400000 0
8.875000 0.400000 0
9.000000 0.400000 0
9.125000 0.400000 0
9.250000 0.400000 0
9.375000 0.400000 0
9.500000 0.400000 0
9.625000 0.400000 0
9.750000 0.400000 0
9.875000 0.400000 0
10.000000 0.400000 0
0.000000 0.480000 0
0.125000 0.480000 0
0.250000 0.480000 0
0.375000 0.480000 0
0.500000 0.480000 0
[...]
POINT_DATA 2106 

VECTORS velocity float
0.500000 0.000000 0
-0.000046 0.000000 0
-0.000238 0.000000 0
-0.000500 0.000000 0
-0.000678 0.000000 0
-0.000700 0.000000 0
-0.000598 0.000000 0
-0.000417 0.000000 0
-0.000241 0.000000 0
-0.000257 0.000000 0
-0.000146 0.000000 0
0.000025 0.000000 0
0.000247 0.000000 0
0.000695 0.000000 0
0.001705 0.000000 0
0.001495 0.000000 0
0.002364 0.000000 0
0.004828 0.000000 0
0.011248 0.000000 0
0.020811 0.000000 0
0.032220 0.000000 0
0.042145 0.000000 0
0.054353 0.000000 0
0.059145 0.000000 0
0.059431 0.000000 0
0.046735 0.000000 0
0.043754 0.000000 0
0.041970 0.000000 0
0.032935 0.000000 0
0.024174 0.000000 0
0.016609 0.000000 0
0.011417 0.000000 0
0.007922 0.000000 0
0.004894 0.000000 0
0.002329 0.000000 0
0.000000 0.000000 0
0.000000 0.000000 0
0.000000 0.000000 0
0.000000 0.000000 0
0.000000 0.000000 0
-0.001380 0.000000 0
-0.002681 0.000000 0
-0.003774 0.000000 0
-0.004606 0.000000 0
-0.005176 0.000000 0
-0.005369 0.000000 0
-0.005298 0.000000 0
-0.004928 0.000000 0
-0.004272 0.000000 0
-0.003479 0.000000 0
-0.002876 0.000000 0
-0.002436 0.000000 0
-0.002010 0.000000 0
-0.001661 0.000000 0
0.000042 0.000000 0
0.000961 0.000000 0
0.002726 0.000000 0
0.004632 0.000000 0
0.007253 0.000000 0
0.012454 0.000000 0
0.021288 0.000000 0
0.035208 0.000000 0
0.048909 0.000000 0
0.058553 0.000000 0
0.064901 0.000000 0
0.069864 0.000000 0
0.059409 0.000000 0
0.054285 0.000000 0
0.047453 0.000000 0
0.038891 0.000000 0
0.028536 0.000000 0
0.020175 0.000000 0
0.015497 0.000000 0
0.012328 0.000000 0
0.009769 0.000000 0
0.007877 0.000000 0
0.006526 0.000000 0
0.005578 0.000000 0
0.004939 0.000000 0
0.004544 0.000000 0
0.004391 0.000000 0
1.000000 -0.003585 0
1.004537 -0.012010 0
1.025087 -0.022424 0
1.062477 -0.033316 0
1.116270 -0.043326 0
1.184749 -0.052615 0
1.267624 -0.062594 0
1.367561 -0.074394 0
1.487264 -0.092066 0
1.644712 -0.132327 0
1.856169 -0.169836 0
2.150374 -0.219015 0
2.549051 -0.323052 0
3.136644 -0.432167 0
3.897124 -0.633921 0
5.190499 -0.683774 0
6.072263 -0.445739 0
6.513205 -0.229624 0
6.713045 -0.088744 0
6.759646 0.020998 0
6.660395 0.139041 0
6.352877 0.262089 0
5.869085 0.371726 0
5.226984 0.444979 0
4.508870 0.462732 0
3.767601 0.427547 0
3.055299 0.384428 0
2.425911 0.347815 0
1.926837 0.299052 0
1.534735 0.247784 0
1.207127 0.199822 0
0.928666 0.170407 0
0.676220 0.155489 0
0.441267 0.145310 0
0.217587 0.139017 0
0.000000 0.001549 0
0.000000 -0.066784 0
0.000000 0.000000 0
0.000000 0.021058 0
0.000000 0.000960 0
0.055975 -0.042202 0
0.119474 -0.047594 0
0.193853 -0.054994 0
0.281180 -0.063841 0
0.383733 -0.074326 0
0.503856 -0.084984 0
0.639353 -0.097558 0
0.797692 -0.109419 0
0.970072 -0.120318 0
1.162311 -0.135072 0
1.379791 -0.159748 0
1.648982 -0.208134 0
2.008198 -0.271477 0
2.469541 -0.362239 0
3.108486 -0.471168 0
3.944084 -0.687924 0
5.345052 -0.731814 0
6.266967 -0.470443 0
6.730916 -0.246605 0
6.947992 -0.108193 0
7.030958 -0.005967 0
6.983657 0.111525 0
6.717991 0.239764 0
6.274155 0.351771 0
5.666946 0.435119 0
4.972953 0.462069 0
4.248022 0.433124 0
3.532310 0.379270 0
2.911809 0.322318 0
2.449061 0.258085 0
2.126052 0.190004 0
1.891430 0.136431 0
1.713688 0.100356 0
1.575545 0.076123 0
1.469847 0.057168 0
1.390355 0.042124 0
1.331047 0.030417 0
1.287563 0.021095 0
1.256942 0.013404 0
1.237164 0.006389 0
1.228157 0.002731 0
1.000000 -0.005762 0
1.004074 -0.020760 0
1.023934 -0.040776 0
1.059355 -0.062051 0
1.110276 -0.081947 0
1.175342 -0.100559 0
1.254362 -0.120692 0
1.350012 -0.144260 0
1.465291 -0.181067 0
1.616049 -0.239788 0
1.797547 -0.327311 0
2.081251 -0.447130 0
2.463853 -0.634896 0
3.008820 -0.866448 0
3.789812 -1.318145 0
5.235464 -1.395762 0
5.926196 -0.850200 0
6.227051 -0.413764 0
6.362622 -0.161381 0
6.421325 0.030041 0
6.412786 0.256681 0
6.185053 0.502790 0
5.708729 0.716925 0
5.077252 0.866893 0
4.364670 0.930362 0
3.619676 0.926644 0
2.916350 0.855041 0
2.345141 0.718576 0
1.883767 0.566714 0
1.497581 0.456977 0
1.178723 0.384248 0
0.905836 0.336144 0
0.662368 0.308299 0
0.433912 0.289889 0
0.214776 0.278775 0
0.000000 0.002988 0
0.000000 -0.134450 0
0.000000 0.000000 0
0.000000 0.040499 0
0.000000 0.001905 0
0.052756 -0.081025 0
0.113410 -0.091823 0
0.186059 -0.107073 0
0.272950 -0.125103 0
0.375510 -0.146092 0
0.495069 -0.167176 0
0.631020 -0.191633 0
0.783100 -0.215237 0
0.954785 -0.236931 0
1.142578 -0.265794 0
1.356786 -0.315041 0
1.616066 -0.405750 0
1.952147 -0.528726 0
2.377881 -0.707749 0
2.981675 -0.947269 0
3.842616 -1.434960 0
5.397369 -1.490198 0
6.127228 -0.890500 0
6.417366 -0.439397 0
6.546516 -0.195562 0
6.632101 -0.026356 0
6.680746 0.196773 0
6.508656 0.450559 0
6.081459 0.669148 0
5.494838 0.829251 0
4.815890 0.904595 0
4.106809 0.918497 0
3.429668 0.851662 0
2.876484 0.689767 0
2.448331 0.499373 0
2.129352 0.353373 0
1.880722 0.260403 0
1.696676 0.198657 0
1.560537 0.152549 0
1.459265 0.115013 0
1.383401 0.085324 0
1.326647 0.062279 0
1.284880 0.043919 0
1.255373 0.028748 0
1.236260 0.014916 0
1.227497 0.007750 0
1.000000 -0.007816 0
1.002840 -0.029565 0
1.023604 -0.059031 0
1.057742 -0.089802 0
1.105815 -0.118785 0
1.166729 -0.146056 0
1.240427 -0.175609 0
1.329134 -0.210614 0
1.438070 -0.263556 0
1.572989 -0.346195 0
1.747292 -0.468789 0
1.986233 -0.646675 0
2.313254 -0.917920 0
2.769922 -1.282004 0
3.542842 -2.060194 0
5.046864 -2.052279 0
5.292275 -1.081571 0
5.286387 -0.510152 0
5.301912 -0.214293 0
5.359806 -0.012319 0
5.629131 0.289044 0
5.571599 0.711475 0
5.170453 1.079508 0
4.602318 1.303968 0
3.943110 1.394371 0
3.282284 1.353263 0
2.686987 1.198921 0
2.209227 1.007459 0
1.784320 0.840283 0
1.419432 0.697804 0
1.127271 0.577331 0
0.872380 0.499667 0
0.642229 0.456313 0
0.422594 0.430561 0
0.209672 0.415513 0
0.000000 0.004316 0
0.000000 -0.200870 0
0.000000 0.000000 0
0.000000 0.058345 0
0.000000 0.002909 0
0.046256 -0.116955 0
0.101898 -0.134098 0
0.171703 -0.158289 0
0.258100 -0.186279 0
0.361071 -0.217672 0
0.480655 -0.249699 0
0.616453 -0.283086 0
0.760851 -0.317817 0
0.932594 -0.351571 0
1.109028 -0.393540 0
1.318401 -0.463966 0
1.558768 -0.590351 0
1.836821 -0.760223 0
2.244109 -1.022321 0
2.779711 -1.409782 0
3.593338 -2.235149 0
5.190187 -2.195145 0
5.458746 -1.124418 0
5.415821 -0.516124 0
5.389394 -0.246795 0
5.433395 -0.093044 0
5.743401 0.189360 0
5.784799 0.622139 0
5.457782 0.999446 0
4.936382 1.243915 0
4.305883 1.349240 0
3.673796 1.319138 0
3.143484 1.165511 0
2.691544 0.949208 0
2.314949 0.735083 0
2.023605 0.552108 0
1.806048 0.412178 0
1.644175 0.304108 0
1.523420 0.226900 0
1.432618 0.169369 0
1.363423 0.125834 0
1.311028 0.092305 0
1.272148 0.065545 0
1.244505 0.043355 0
1.226517 0.023065 0
1.218164 0.012566 0
1.000000 -0.009203 0
0.999573 -0.038105 0
1.022340 -0.077140 0
1.054640 -0.115893 0
1.098733 -0.152925 0
1.154020 -0.187937 0
1.220534 -0.225857 0
1.299992 -0.271978 0
1.400380 -0.338360 0
1.516739 -0.438915 0
1.663869 -0.593012 0
1.856335 -0.810570 0
2.106072 -1.137680 0
2.456139 -1.654607 0
3.008418 -2.776610 0
4.119830 -2.516619 0
3.812381 -1.004713 0
3.264430 -0.421147 0
3.013371 -0.209581 0
2.890742 -0.180589 0
3.861564 0.119923 0
4.211149 0.795133 0
4.145060 1.336055 0
3.820383 1.651183 0
3.322688 1.773975 0
2.830270 1.729354 0
2.336430 1.540589 0
1.903553 1.295074 0
1.552704 1.070975 0
1.284536 0.876281 0
1.053677 0.733154 0
0.830702 0.645364 0
0.616844 0.594954 0
0.408269 0.565519 0
0.203280 0.548028 0
0.000000 0.005486 0
0.000000 -0.265538 0
0.000000 0.000000 0
0.000000 0.073779 0
0.000000 0.004007 0
0.036619 -0.148409 0
0.084749 -0.173300 0
0.150482 -0.208231 0
0.236328 -0.247488 0
0.340698 -0.289717 0
0.461071 -0.331809 0
0.595985 -0.372146 0
0.735332 -0.418755 0
0.899827 -0.460953 0
1.069106 -0.513898 0
1.262570 -0.604061 0
1.475299 -0.738725 0
1.708292 -0.968529 0
2.039441 -1.312383 0
2.438891 -1.811959 0
3.049031 -2.978846 0
4.210248 -2.685239 0
3.887212 -1.036083 0
3.335641 -0.396185 0
3.078935 -0.207980 0
2.898746 -0.254089 0
3.872885 -0.029295 0
4.286033 0.632187 0
4.304274 1.210967 0
4.037298 1.565299 0
3.638962 1.711483 0
3.160124 1.661265 0
2.720399 1.479137 0
2.315328 1.218863 0
2.031521 0.925688 0
1.833201 0.677904 0
1.692107 0.502072 0
1.571504 0.378374 0
1.473857 0.286780 0
1.396649 0.216246 0
1.336147 0.161976 0
1.289553 0.119529 0
1.254574 0.085329 0
1.229490 0.056787 0
1.213060 0.030609 0
1.205268 0.017075 0
1.000000 -0.009167 0
0.996194 -0.046101 0
1.019147 -0.095501 0
1.049890 -0.139920 0
1.089516 -0.183615 0
1.138051 -0.225236 0
1.195751 -0.270257 0
1.264134 -0.326942 0
1.348694 -0.403500 0
1.448559 -0.516054 0
1.560701 -0.687356 0
1.692665 -0.930910 0
1.857943 -1.303019 0
2.050042 -1.860728 0
2.291834 -3.126179 0
2.034338 -2.568037 0
0.001802 -0.535334 0
0.004911 0.000000 0
-0.003519 0.023656 0
0.591988 -0.556372 0
2.080443 -0.557227 0
2.731879 0.528828 0
2.905798 1.328389 0
2.780275 1.829076 0
2.502430 2.026834 0
2.180631 1.983260 0
1.877867 1.790812 0
1.596296 1.507836 0
1.373517 1.235246 0
1.177155 1.015973 0
0.984688 0.866578 0
0.786744 0.778033 0
0.588858 0.725462 0
0.392804 0.694034 0
0.196138 0.675598 0
0.000000 0.006476 0
0.000000 -0.328205 0
0.000000 0.000000 0
0.000000 0.085684 0
0.000000 0.005237 0
0.022855 -0.173364 0
0.060447 -0.208160 0
0.120805 -0.256489 0
0.206475 -0.309207 0
0.313789 -0.362697 0
0.437101 -0.414272 0
0.570189 -0.459801 0
0.710394 -0.513464 0
0.855622 -0.566375 0
1.023039 -0.626883 0
1.190942 -0.725116 0
1.377134 -0.876799 0
1.575550 -1.122459 0
1.778005 -1.491090 0
2.006413 -2.057104 0
2.295156 -3.370001 0
2.080591 -2.732763 0
-0.002097 -0.565846 0
-0.004673 0.000000 0
-0.008469 0.031648 0
0.607453 -0.602340 0
2.019529 -0.699672 0
2.728734 0.344883 0
2.972939 1.157468 0
2.929035 1.668547 0
2.714213 1.909465 0
2.471502 1.905853 0
2.200891 1.705014 0
1.992994 1.388923 0
1.849525 1.042478 0
1.720213 0.768167 0
1.599780 0.578498 0
1.498399 0.442622 0
1.418170 0.337642 0
1.354130 0.256338 0
1.303204 0.193211 0
1.263321 0.143347 0
1.232943 0.102820 0
1.210903 0.068759 0
1.196335 0.037402 0
1.189232 0.021192 0
1.000000 -0.008391 0
0.994847 -0.052597 0
1.014022 -0.112734 0
1.043005 -0.162156 0
1.078147 -0.210575 0
1.119251 -0.257155 0
1.166861 -0.307777 0
1.222347 -0.371088 0
1.287267 -0.457617 0
1.364621 -0.575825 0
1.447516 -0.750466 0
1.516068 -1.002030 0
1.590913 -1.367626 0
1.613151 -1.933522 0
1.502628 -2.767783 0
0.342614 -0.000936 0
-1.394910 1.627660 0
-0.952457 0.000000 0
-0.741239 1.040887 0
0.000000 -0.014418 0
0.870073 -1.241626 0
1.599940 0.265697 0
1.792493 1.303872 0
1.764976 1.908129 0
1.702421 2.156539 0
1.561403 2.127866 0
1.445187 1.913354 0
1.335199 1.616650 0
1.214079 1.338017 0
1.076187 1.123923 0
0.913709 0.981809 0
0.740287 0.897487 0
0.560450 0.845868 0
0.376371 0.815652 0
0.189566 0.798216 0
0.000000 0.007259 0
0.000000 -0.388690 0
0.000000 0.000000 0
0.000000 0.092619 0
0.000000 0.006644 0
0.003636 -0.189265 0
0.026878 -0.237178 0
0.080473 -0.302879 0
0.167140 -0.372188 0
0.280119 -0.438508 0
0.408247 -0.497094 0
0.544197 -0.548242 0
0.685034 -0.602621 0
0.812469 -0.662234 0
0.966957 -0.729690 0
1.110151 -0.831869 0
1.254845 -0.986061 0
1.400272 -1.226272 0
1.522405 -1.589321 0
1.591165 -2.144121 0
1.512044 -3.027505 0
0.362142 -0.007034 0
-1.410051 1.777207 0
-0.987458 0.000000 0
-0.796467 1.058593 0
0.000000 -0.003718 0
0.742289 -1.375600 0
1.593104 0.020837 0
1.825482 1.081607 0
1.885605 1.729716 0
1.849575 2.003137 0
1.792792 1.988625 0
1.731815 1.784216 0
1.705894 1.442571 0
1.657481 1.099102 0
1.575872 0.836574 0
1.487797 0.642867 0
1.415087 0.493438 0
1.355501 0.377947 0
1.306189 0.288659 0
1.265693 0.218929 0
1.233146 0.163331 0
1.207856 0.117711 0
1.189220 0.079051 0
1.176754 0.043313 0
1.170446 0.024842 0
1.000000 -0.007493 0
0.994686 -0.057313 0
1.007955 -0.127550 0
1.034510 -0.182187 0
1.064909 -0.233640 0
1.098190 -0.283239 0
1.134974 -0.337465 0
1.176346 -0.405228 0
1.223058 -0.495781 0
1.273622 -0.619839 0
1.324303 -0.785507 0
1.355779 -1.023910 0
1.355380 -1.366377 0
1.279093 -1.805451 0
0.901415 -2.314260 0
0.000000 -0.000802 0
0.000000 1.290104 0
0.000000 0.000000 0
0.000000 1.128874 0
0.000000 0.000087 0
-0.073162 -1.573706 0
0.665135 -0.062730 0
0.845025 1.221558 0
0.960947 1.885514 0
1.026773 2.155912 0
1.083291 2.146681 0
1.124739 1.934374 0
1.122831 1.654537 0
1.069927 1.399806 0
0.974910 1.207003 0
0.842869 1.080346 0
0.695212 1.002911 0
0.534068 0.957161 0
0.362968 0.930193 0
0.183388 0.915269 0
0.000000 0.007851 0
0.000000 -0.447549 0
0.000000 0.000000 0
0.000000 0.092629 0
0.000000 0.008280 0
-0.023122 -0.192736 0
-0.019255 -0.258526 0
0.026181 -0.347447 0
0.116427 -0.438170 0
0.239159 -0.518195 0
0.376139 -0.584471 0
0.518483 -0.638134 0
0.656872 -0.686347 0
0.780707 -0.747994 0
0.905164 -0.818587 0
1.030990 -0.910552 0
1.138343 -1.063664 0
1.232231 -1.294885 0
1.282653 -1.614447 0
1.238123 -2.051659 0
0.923126 -2.584612 0
0.000000 -0.001637 0
0.000000 1.429935 0
0.000000 0.000000 0
0.000000 1.100064 0
0.000000 0.002428 0
-0.085232 -1.708426 0
0.637497 -0.349528 0
0.821178 0.969101 0
1.012790 1.651960 0
1.165296 1.967699 0
1.252887 1.980053 0
1.356655 1.759462 0
1.433459 1.435330 0
1.441170 1.124526 0
1.408042 0.875598 0
1.367075 0.680235 0
1.326867 0.526126 0
1.288960 0.406171 0
1.254706 0.312650 0
1.224901 0.238793 0
1.199973 0.179197 0
1.180037 0.129767 0
1.165012 0.087499 0
1.154765 0.048252 0
1.149332 0.027967 0
1.000000 -0.006615 0
0.994372 -0.059926 0
1.000245 -0.139448 0
1.025591 -0.199833 0
1.050494 -0.252557 0
1.075568 -0.303223 0
1.101202 -0.359024 0
1.128367 -0.428688 0
1.156854 -0.521100 0
1.185763 -0.641848 0
1.203375 -0.804272 0
1.215793 -1.023145 0
1.159156 -1.319773 0
1.000626 -1.644209 0
0.635211 -1.950389 0
0.000000 -0.000738 0
0.000000 1.051566 0
0.000000 0.000000 0
0.000000 0.992264 0
0.000000 -0.017819 0
-0.339208 -1.669519 0
-0.097156 -0.323151 0
0.107589 1.113344 0
0.356186 1.790602 0
0.551677 2.077031 0
0.733529 2.063960 0
0.873007 1.886841 0
0.932589 1.650523 0
0.931538 1.431479 0
0.875244 1.268033 0
0.778639 1.159608 0
0.655693 1.093913 0
0.511452 1.057298 0
0.352584 1.038881 0
0.179197 1.029308 0
0.000000 0.008234 0
0.000000 -0.504479 0
0.000000 0.000000 0
0.000000 0.082955 0
0.000000 0.010203 0
-0.060608 -0.179113 0
-0.083211 -0.269923 0
-0.046916 -0.390906 0
0.051978 -0.509684 0
0.190734 -0.605914 0
0.343264 -0.677051 0
0.492040 -0.729100 0
0.630613 -0.771633 0
0.756775 -0.822329 0
0.855887 -0.891059 0
0.955615 -0.982291 0
1.041882 -1.116042 0
1.086525 -1.319818 0
1.079324 -1.594279 0
0.968132 -1.915210 0
0.627969 -2.236293 0
0.000000 -0.002818 0
0.000000 1.191217 0
0.000000 0.000000 0
0.000000 0.989516 0
0.000000 -0.019793 0
-0.297384 -1.785729 0
-0.232139 -0.560433 0
0.047268 0.840253 0
0.328731 1.508314 0
0.566629 1.848308 0
0.814002 1.864988 0
1.026601 1.667483 0
1.165866 1.387315 0
1.229630 1.114203 0
1.250487 0.882829 0
1.250771 0.693653 0
1.239408 0.542267 0
1.221348 0.422964 0
1.201485 0.328492 0
1.182132 0.252793 0
1.164760 0.190878 0
1.150212 0.138921 0
1.138842 0.094060 0
1.130822 0.052183 0
1.126319 0.030526 0
1.000000 -0.005515 0
0.996234 -0.059707 0
0.995197 -0.148757 0
1.014567 -0.215574 0
1.034604 -0.266852 0
1.051878 -0.316919 0
1.066493 -0.372483 0
1.080015 -0.442072 0
1.092660 -0.533741 0
1.100366 -0.650838 0
1.099030 -0.805952 0
1.055613 -0.996835 0
0.978796 -1.229896 0
0.779784 -1.471351 0
0.462974 -1.675086 0
0.000000 -0.000698 0
0.000000 0.884286 0
0.000000 0.000000 0
0.000000 0.886166 0
0.000000 -0.027130 0
-0.437654 -1.513732 0
-0.776013 -0.349889 0
-0.416436 0.930210 0
-0.119981 1.600089 0
0.183684 1.913205 0
0.447260 1.939822 0
0.646071 1.805768 0
0.761343 1.615870 0
0.805238 1.435299 0
0.789092 1.303651 0
0.725751 1.219652 0
0.625090 1.172703 0
0.496678 1.149945 0
0.346141 1.141629 0
0.178898 1.139716 0
0.000000 0.008396 0
0.000000 -0.561086 0
0.000000 0.000000 0
0.000000 0.059606 0
0.000000 0.012470 0
-0.113196 -0.141652 0
-0.172974 -0.268480 0
-0.146032 -0.435159 0
-0.029836 -0.591456 0
0.135903 -0.705808 0
0.310317 -0.778496 0
0.471441 -0.823227 0
0.612091 -0.856966 0
0.731653 -0.893357 0
0.824664 -0.947032 0
0.895392 -1.030776 0
0.947172 -1.148634 0
0.963338 -1.320035 0
0.911546 -1.539864 0
0.751553 -1.763978 0
0.449306 -1.966195 0
0.000000 -0.003462 0
0.000000 1.026804 0
0.000000 0.000000 0
0.000000 0.883690 0
0.000000 -0.025167 0
-0.468993 -1.561986 0
-0.927797 -0.571272 0
-0.496248 0.608977 0
-0.220187 1.318402 0
0.119790 1.655958 0
0.457138 1.684504 0
0.734077 1.533103 0
0.928153 1.304226 0
1.046098 1.069203 0
1.111944 0.860902 0
1.142563 0.686160 0
1.155353 0.543791 0
1.154537 0.429276 0
1.148061 0.336583 0
1.138570 0.261131 0
1.128399 0.198461 0
1.119062 0.145189 0
1.111291 0.098743 0
1.105416 0.055101 0
1.101880 0.032488 0
1.000000 -0.005829 0
0.998363 -0.059090 0
0.994603 -0.152409 0
1.001719 -0.226281 0
1.017710 -0.277663 0
1.027763 -0.324859 0
1.032439 -0.378258 0
1.033639 -0.446662 0
1.035770 -0.535351 0
1.023071 -0.647151 0
1.000098 -0.776856 0
0.942109 -0.947421 0
0.837790 -1.144468 0
0.637841 -1.315309 0
0.360064 -1.452554 0
0.000000 -0.000645 0
0.000000 0.755969 0
0.000000 0.000000 0
0.000000 0.704514 0
0.000000 -0.027072 0
-0.618962 -1.175076 0
-1.084697 -0.337939 0
-0.765909 0.692275 0
-0.461438 1.405317 0
-0.123687 1.712788 0
0.205661 1.766824 0
0.455328 1.684620 0
0.621327 1.547448 0
0.704961 1.412513 0
0.721697 1.317698 0
0.686203 1.263363 0
0.606375 1.239313 0
0.492608 1.234619 0
0.349684 1.241054 0
0.182579 1.249632 0
0.000000 0.008414 0
0.000000 -0.618191 0
0.000000 0.000000 0
0.000000 0.017003 0
0.000000 0.015120 0
-0.185837 -0.070581 0
-0.298187 -0.250098 0
-0.280060 -0.483705 0
-0.132337 -0.691313 0
0.077955 -0.824801 0
0.282478 -0.892985 0
0.460126 -0.923425 0
0.605496 -0.939358 0
0.716800 -0.959564 0
0.799797 -0.997040 0
0.852855 -1.061884 0
0.873761 -1.160715 0
0.860159 -1.298205 0
0.777909 -1.459924 0
0.602985 -1.620565 0
0.346356 -1.756487 0
0.000000 -0.003841 0
0.000000 0.903232 0
0.000000 0.000000 0
0.000000 0.687592 0
0.000000 -0.023107 0
-0.623101 -1.194068 0
-1.097144 -0.544156 0
-0.868357 0.386216 0
-0.574401 1.112883 0
-0.177247 1.413654 0
0.194545 1.470678 0
0.505540 1.364868 0
0.739287 1.186456 0
0.893919 0.995410 0
0.991277 0.819926 0
1.047891 0.664706 0
1.078480 0.533437 0
1.090250 0.426466 0
1.095823 0.337545 0
1.095237 0.264211 0
1.091673 0.202198 0
1.087262 0.148704 0
1.082976 0.101628 0
1.078964 0.057041 0
1.076407 0.033837 0
1.000000 -0.006092 0
0.997567 -0.058491 0
0.994574 -0.152133 0
0.994558 -0.231590 0
1.000037 -0.284747 0
1.002346 -0.327573 0
1.001479 -0.377471 0
0.995884 -0.445431 0
0.982884 -0.528204 0
0.958613 -0.629235 0
0.913784 -0.755362 0
0.852407 -0.894184 0
0.732713 -1.036391 0
0.532624 -1.166833 0
0.291226 -1.268094 0
0.000000 -0.000511 0
0.000000 0.654646 0
0.000000 0.000000 0
0.000000 0.491484 0
0.000000 -0.027277 0
-0.621000 -0.821731 0
-1.029739 -0.257052 0
-0.960467 0.530116 0
-0.640983 1.187859 0
-0.288854 1.485054 0
0.058513 1.568045 0
0.330448 1.538534 0
0.524117 1.454897 0
0.633669 1.369855 0
0.675519 1.314449 0
0.663717 1.292251 0
0.604209 1.295398 0
0.501470 1.313021 0
0.364160 1.338841 0
0.192574 1.362307 0
0.000000 0.008278 0
0.000000 -0.677453 0
0.000000 0.000000 0
0.000000 -0.052070 0
0.000000 0.018154 0
-0.284583 0.047016 0
-0.465242 -0.209368 0
-0.443715 -0.542494 0
-0.239209 -0.821776 0
0.025389 -0.972480 0
0.267797 -1.024276 0
0.463462 -1.031148 0
0.613198 -1.022427 0
0.718166 -1.018899 0
0.784829 -1.035296 0
0.818433 -1.079302 0
0.816735 -1.154496 0
0.775638 -1.259878 0
0.676962 -1.376461 0
0.508197 -1.488972 0
0.280648 -1.581473 0
0.000000 -0.004090 0
0.000000 0.805102 0
0.000000 0.000000 0
0.000000 0.487419 0
0.000000 -0.024198 0
-0.564291 -0.861943 0
-0.962622 -0.415475 0
-1.014561 0.273255 0
-0.695341 0.874925 0
-0.320992 1.162666 0
0.047404 1.246354 0
0.359798 1.183302 0
0.601254 1.054498 0
0.769536 0.906764 0
0.884157 0.761194 0
0.961041 0.629185 0
1.004712 0.515516 0
1.029531 0.417011 0
1.046963 0.332226 0
1.053385 0.262622 0
1.055366 0.202399 0
1.055452 0.149590 0
1.054610 0.102888 0
1.051817 0.058140 0