# vtk DataFile Version 2.0
generated by CFD-lab course output (written by Tobias Neckel) 
ASCII

DATASET STRUCTURED_GRID
DIMENSIONS  81 26 1 
POINTS 2106 float

0.000000 0.000000 0
0.125000 0.000000 0
0.250000 0.000000 0
0.375000 0.000000 0
0.500000 0.000000 0
0.625000 0.000000 0
0.750000 0.000000 0
0.875000 0.000000 0
1.000000 0.000000 0
1.125000 0.000000 0
1.250000 0.000000 0
1.375000 0.000000 0
1.500000 0.000000 0
1.625000 0.000000 0
1.750000 0.000000 0
1.875000 0.000000 0
2.000000 0.000000 0
2.125000 0.000000 0
2.250000 0.000000 0
2.375000 0.000000 0
2.500000 0.000000 0
2.625000 0.000000 0
2.750000 0.000000 0
2.875000 0.000000 0
3.000000 0.000000 0
3.125000 0.000000 0
3.250000 0.000000 0
3.375000 0.000000 0
3.500000 0.000000 0
3.625000 0.000000 0
3.750000 0.000000 0
3.875000 0.000000 0
4.000000 0.000000 0
4.125000 0.000000 0
4.250000 0.000000 0
4.375000 0.000000 0
4.500000 0.000000 0
4.625000 0.000000 0
4.750000 0.000000 0
4.875000 0.000000 0
5.000000 0.000000 0
5.125000 0.000000 0
5.250000 0.000000 0
5.375000 0.000000 0
5.500000 0.000000 0
5.625000 0.000000 0
5.750000 0.000000 0
5.875000 0.000000 0
6.000000 0.000000 0
6.125000 0.000000 0
6.250000 0.000000 0
6.375000 0.000000 0
6.500000 0.000000 0
6.625000 0.000000 0
6.750000 0.000000 0
6.875000 0.000000 0
7.000000 0.000000 0
7.125000 0.000000 0
7.250000 0.000000 0
7.375000 0.000000 0
7.500000 0.000000 0
7.625000 0.000000 0
7.750000 0.000000 0
7.875000 0.000000 0
8.000000 0.000000 0
8.125000 0.000000 0
8.250000 0.000000 0
8.375000 0.000000 0
8.500000 0.000000 0
8.625000 0.000000 0
8.750000 0.000000 0
8.875000 0.000000 0
9.000000 0.000000 0
9.125000 0.000000 0
9.250000 0.000000 0
9.375000 0.000000 0
9.500000 0.000000 0
9.625000 0.000000 0
9.750000 0.000000 0
9.875000 0.000000 0
10.000000 0.000000 0
0.000000 0.080000 0
0.125000 0.080000 0
0.250000 0.080000 0
0.375000 0.080000 0
0.500000 0.080000 0
0.625000 0.080000 0
0.750000 0.080000 0
0.875000 0.080000 0
1.000000 0.080000 0
1.125000 0.080000 0
1.250000 0.080000 0
1.375000 0.080000 0
1.500000 0.080000 0
1.625000 0.080000 0
1.750000 0.080000 0
1.875000 0.080000 0
2.000000 0.080000 0
2.125000 0.080000 0
2.250000 0.080000 0
2.375000 0.080000 0
2.500000 0.080000 0
2.625000 0.080000 0
2.750000 0.080000 0
2.875000 0.080000 0
3.000000 0.080000 0
3.125000 0.080000 0
3.250000 0.080000 0
3.375000 0.080000 0
3.500000 0.080000 0
3.625000 0.080000 0
3.750000 0.080000 0
3.875000 0.080000 0
4.000000 0.080000 0
4.125000 0.080000 0
4.250000 0.080000 0
4.375000 0.080000 0
4.500000 0.080000 0
4.625000 0.080000 0
4.750000 0.080000 0
4.875000 0.080000 0
5.000000 0.080000 0
5.125000 0.080000 0
5.250000 0.080000 0
5.375000 0.080000 0
5.500000 0.080000 0
5.625000 0.080000 0
5.750000 0.080000 0
5.875000 0.080000 0
6.000000 0.080000 0
6.125000 0.080000 0
6.250000 0.080000 0
6.375000 0.080000 0
6.500000 0.080000 0
6.625000 0.080000 0
6.750000 0.080000 0
6.875000 0.080000 0
7.000000 0.080000 0
7.125000 0.080000 0
7.250000 0.080000 0
7.375000 0.080000 0
7.500000 0.080000 0
7.625000 0.080000 0
7.750000 0.080000 0
7.875000 0.080000 0
8.000000 0.080000 0
8.125000 0.080000 0
8.250000 0.080000 0
8.375000 0.080000 0
8.500000 0.080000 0
8.625000 0.080000 0
8.750000 0.080000 0
8.875000 0.080000 0
9.000000 0.080000 0
9.125000 0.080000 0
9.250000 0.080000 0
9.375000 0.080000 0
9.500000 0.080000 0
9.625000 0.080000 0
9.750000 0.080000 0
9.875000 0.080000 0
10.000000 0.080000 0
0.000000 0.160000 0
0.125000 0.160000 0
0.250000 0.160000 0
0.375000 0.160000 0
0.500000 0.160000 0
0.625000 0.160000 0
0.750000 0.160000 0
0.875000 0.160000 0
1.000000 0.160000 0
1.125000 0.160000 0
1.250000 0.160000 0
1.375000 0.160000 0
1.500000 0.160000 0
1.625000 0.160000 0
1.750000 0.160000 0
1.875000 0.160000 0
2.000000 0.160000 0
2.125000 0.160000 0
2.250000 0.160000 0
2.375000 0.160000 0
2.500000 0.160000 0
2.625000 0.160000 0
2.750000 0.160000 0
2.875000 0.160000 0
3.000000 0.160000 0
3.125000 0.160000 0
3.250000 0.160000 0
3.375000 0.160000 0
3.500000 0.160000 0
3.625000 0.160000 0
3.750000 0.160000 0
3.875000 0.160000 0
4.000000 0.160000 0
4.125000 0.160000 0
4.250000 0.160000 0
4.375000 0.160000 0
4.500000 0.160000 0
4.625000 0.160000 0
4.750000 0.160000 0
4.875000 0.160000 0
5.000000 0.160000 0
5.125000 0.160000 0
5.250000 0.160000 0
5.375000 0.160000 0
5.500000 0.160000 0
5.625000 0.160000 0
5.750000 0.160000 0
5.875000 0.160000 0
6.000000 0.160000 0
6.125000 0.160000 0
6.250000 0.160000 0
6.375000 0.160000 0
6.500000 0.160000 0
6.625000 0.160000 0
6.750000 0.160000 0
6.875000 0.160000 0
7.000000 0.160000 0
7.125000 0.160000 0
7.250000 0.160000 0
7.375000 0.160000 0
7.500000 0.160000 0
7.625000 0.160000 0
7.750000 0.160000 0
7.875000 0.160000 0
8.000000 0.160000 0
8.125000 0.160000 0
8.250000 0.160000 0
8.375000 0.160000 0
8.500000 0.160000 0
8.625000 0.160000 0
8.750000 0.160000 0
8.875000 0.160000 0
9.000000 0.160000 0
9.125000 0.160000 0
9.250000 0.160000 0
9.375000 0.160000 0
9.500000 0.160000 0
9.625000 0.160000 0
9.750000 0.160000 0
9.875000 0.160000 0
10.000000 0.160000 0
0.000000 0.240000 0
0.125000 0.240000 0
0.250000 0.240000 0
0.375000 0.240000 0
0.500000 0.240000 0
0.625000 0.240000 0
0.750000 0.240000 0
0.875000 0.240000 0
1.000000 0.240000 0
1.125000 0.240000 0
1.250000 0.240000 0
1.375000 0.240000 0
1.500000 0.240000 0
1.625000 0.240000 0
1.750000 0.240000 0
1.875000 0.240000 0
2.000000 0.240000 0
2.125000 0.240000 0
2.250000 0.240000 0
2.375000 0.240000 0
2.500000 0.240000 0
2.625000 0.240000 0
2.750000 0.240000 0
2.875000 0.240000 0
3.000000 0.240000 0
3.125000 0.240000 0
3.250000 0.240000 0
3.375000 0.240000 0
3.500000 0.240000 0
3.625000 0.240000 0
3.750000 0.240000 0
3.875000 0.240000 0
4.000000 0.240000 0
4.125000 0.240000 0
4.250000 0.240000 0
4.375000 0.240000 0
4.500000 0.240000 0
4.625000 0.240000 0
4.750000 0.240000 0
4.875000 0.240000 0
5.000000 0.240000 0
5.125000 0.240000 0
5.250000 0.240000 0
5.375000 0.240000 0
5.500000 0.240000 0
5.625000 0.240000 0
5.750000 0.240000 0
5.875000 0.240000 0
6.000000 0.240000 0
6.125000 0.240000 0
6.250000 0.240000 0
6.375000 0.240000 0
6.500000 0.240000 0
6.625000 0.240000 0
6.750000 0.240000 0
6.875000 0.240000 0
7.000000 0.240000 0
7.125000 0.240000 0
7.250000 0.240000 0
7.375000 0.240000 0
7.500000 0.240000 0
7.625000 0.240000 0
7.750000 0.240000 0
7.875000 0.240000 0
8.000000 0.240000 0
8.125000 0.240000 0
8.250000 0.240000 0
8.375000 0.240000 0
8.500000 0.240000 0
8.625000 0.240000 0
8.750000 0.240000 0
8.875000 0.240000 0
9.000000 0.240000 0
9.125000 0.240000 0
9.250000 0.240000 0
9.375000 0.240000 0
9.500000 0.240000 0
9.625000 0.240000 0
9.750000 0.240000 0
9.875000 0.240000 0
10.000000 0.240000 0
0.000000 0.320000 0
0.125000 0.320000 0
0.250000 0.320000 0
0.375000 0.320000 0
0.500000 0.320000 0
0.625000 0.320000 0
0.750000 0.320000 0
0.875000 0.320000 0
1.000000 0.320000 0
1.125000 0.320000 0
1.250000 0.320000 0
1.375000 0.320000 0
1.500000 0.320000 0
1.625000 0.320000 0
1.750000 0.320000 0
1.875000 0.320000 0
2.000000 0.320000 0
2.125000 0.320000 0
2.250000 0.320000 0
2.375000 0.320000 0
2.500000 0.320000 0
2.625000 0.320000 0
2.750000 0.320000 0
2.875000 0.320000 0
3.000000 0.320000 0
3.125000 0.320000 0
3.250000 0.320000 0
3.375000 0.320000 0
3.500000 0.320000 0
3.625000 0.320000 0
3.750000 0.320000 0
3.875000 0.320000 0
4.000000 0.320000 0
4.125000 0.320000 0
4.250000 0.320000 0
4.375000 0.320000 0
4.500000 0.320000 0
4.625000 0.320000 0
4.750000 0.320000 0
4.875000 0.320000 0
5.000000 0.320000 0
5.125000 0.320000 0
5.250000 0.320000 0
5.375000 0.320000 0
5.500000 0.320000 0
5.625000 0.320000 0
5.750000 0.320000 0
5.875000 0.320000 0
6.000000 0.320000 0
6.125000 0.320000 0
6.250000 0.320000 0
6.375000 0.320000 0
6.500000 0.320000 0
6.625000 0.320000 0
6.750000 0.320000 0
6.875000 0.320000 0
7.000000 0.320000 0
7.125000 0.320000 0
7.250000 0.320000 0
7.375000 0.320000 0
7.500000 0.320000 0
7.625000 0.320000 0
7.750000 0.320000 0
7.875000 0.320000 0
8.000000 0.320000 0
8.125000 0.320000 0
8.250000 0.320000 0
8.375000 0.320000 0
8.500000 0.320000 0
8.625000 0.320000 0
8.750000 0.320000 0
8.875000 0.320000 0
9.000000 0.320000 0
9.125000 0.320000 0
9.250000 0.320000 0
9.375000 0.320000 0
9.500000 0.320000 0
9.625000 0.320000 0
9.750000 0.320000 0
9.875000 0.320000 0
10.000000 0.320000 0
0.000000 0.400000 0
0.125000 0.400000 0
0.250000 0.400000 0
0.375000 0.400000 0
0.500000 0.400000 0
0.625000 0.400000 0
0.750000 0.400000 0
0.875000 0.400000 0
1.000000 0.400000 0
1.125000 0.400000 0
1.250000 0.400000 0
1.375000 0.400000 0
1.500000 0.400000 0
1.625000 0.400000 0
1.750000 0.400000 0
1.875000 0.400000 0
2.000000 0.400000 0
2.125000 0.400000 0
2.250000 0.400000 0
2.375000 0.400000 0
2.500000 0.400000 0
2.625000 0.400000 0
2.750000 0.400000 0
2.875000 0.400000 0
3.000000 0.400000 0
3.125000 0.400000 0
3.250000 0.400000 0
3.375000 0.400000 0
3.500000 0.400000 0
3.625000 0.400000 0
3.750000 0.400000 0
3.875000 0.400000 0
4.000000 0.400000 0
4.125000 0.400000 0
4.250000 0.400000 0
4.375000 0.400000 0
4.500000 0.400000 0
4.625000 0.400000 0
4.750000 0.400000 0
4.875000 0.400000 0
5.000000 0.400000 0
5.125000 0.400000 0
5.250000 0.400000 0
5.375000 0.400000 0
5.500000 0.400000 0
5.625000 0.400000 0
5.750000 0.400000 0
5.875000 0.400000 0
6.000000 0.400000 0
6.125000 0.400000 0
6.250000 0.400000 0
6.375000 0.400000 0
6.500000 0.400000 0
6.625000 0.400000 0
6.750000 0.400000 0
6.875000 0.400000 0
7.000000 0.400000 0
7.125000 0.400000 0
7.250000 0.400000 0
7.375000 0.400000 0
7.500000 0.400000 0
7.625000 0.400000 0
7.750000 0.400000 0
7.875000 0.400000 0
8.000000 0.400000 0
8.125000 0.400000 0
8.250000 0.400000 0
8.375000 0.400000 0
8.500000 0.400000 0
8.625000 0.400000 0
8.750000 0.400000 0
8.875000 0.400000 0
9.000000 0.400000 0
9.125000 0.400000 0
9.250000 0.400000 0
9.375000 0.400000 0
9.500000 0.400000 0
9.625000 0.400000 0
9.750000 0.400000 0
9.875000 0.400000 0
10.000000 0.400000 0
0.000000 0.480000 0
0.125000 0.480000 0
0.250000 0.480000 0
0.375000 0.480000 0
0.500000 0.480000 0
[...]
POINT_DATA 2106 

VECTORS velocity float
0.500000 0.000000 0
0.000004 0.000000 0
0.000006 0.000000 0
0.000008 0.000000 0
0.000011 0.000000 0
0.000014 0.000000 0
0.000018 0.000000 0
0.000022 0.000000 0
0.000028 0.000000 0
0.000035 0.000000 0
0.000046 0.000000 0
0.000060 0.000000 0
0.000079 0.000000 0
0.000095 0.000000 0
0.000059 0.000000 0
-0.000180 0.000000 0
-0.000412 0.000000 0
0.000310 0.000000 0
0.000172 0.000000 0
-0.000163 0.000000 0
-0.000189 0.000000 0
-0.000098 0.000000 0
-0.000081 0.000000 0
-0.000115 0.000000 0
-0.000119 0.000000 0
-0.000073 0.000000 0
-0.000005 0.000000 0
0.000051 0.000000 0
0.000080 0.000000 0
0.000058 0.000000 0
-0.000083 0.000000 0
-0.000676 0.000000 0
-0.003591 0.000000 0
0.004038 0.000000 0
0.001031 0.000000 0
0.000000 0.000000 0
0.000000 0.000000 0
0.000000 0.000000 0
0.000000 0.000000 0
0.000000 0.000000 0
-0.000129 0.000000 0
-0.000116 0.000000 0
-0.000038 0.000000 0
0.000013 0.000000 0
0.000009 0.000000 0
-0.000012 0.000000 0
-0.000017 0.000000 0
-0.000004 0.000000 0
0.000011 0.000000 0
-0.000002 0.000000 0
-0.000088 0.000000 0
-0.000234 0.000000 0
-0.000371 0.000000 0
-0.000373 0.000000 0
-0.000147 0.000000 0
-0.000307 0.000000 0
-0.000112 0.000000 0
0.000097 0.000000 0
0.000167 0.000000 0
0.000097 0.000000 0
-0.000005 0.000000 0
-0.000068 0.000000 0
-0.000107 0.000000 0
-0.000159 0.000000 0
-0.000212 0.000000 0
-0.000245 0.000000 0
-0.000253 0.000000 0
-0.000246 0.000000 0
-0.000238 0.000000 0
-0.000240 0.000000 0
-0.000258 0.000000 0
-0.000284 0.000000 0
-0.000311 0.000000 0
-0.000345 0.000000 0
-0.000389 0.000000 0
-0.000430 0.000000 0
-0.000445 0.000000 0
-0.000424 0.000000 0
-0.000367 0.000000 0
-0.000288 0.000000 0
-0.000259 0.000000 0
1.000000 -0.001820 0
1.007155 -0.006229 0
1.022525 -0.011900 0
1.047393 -0.018646 0
1.083467 -0.026771 0
1.133148 -0.036745 0
1.199678 -0.049391 0
1.287897 -0.064586 0
1.401352 -0.086728 0
1.556353 -0.117906 0
1.766737 -0.169566 0
2.075542 -0.237619 0
2.495627 -0.336235 0
3.110704 -0.452673 0
3.926900 -0.660956 0
5.273446 -0.703030 0
6.162565 -0.470597 0
6.662323 -0.290630 0
6.978684 -0.205716 0
7.242593 -0.177935 0
7.506665 -0.158859 0
7.728695 -0.126302 0
7.888966 -0.087331 0
7.990116 -0.050609 0
8.043617 -0.019640 0
8.056283 0.011170 0
8.024378 0.048851 0
7.929947 0.108177 0
7.730358 0.201967 0
7.361969 0.327094 0
6.790968 0.475479 0
5.934068 0.640721 0
4.788009 0.834613 0
3.374176 0.997738 0
1.726190 1.044688 0
0.000000 0.000662 0
0.000000 -0.517434 0
0.000000 0.000000 0
0.000000 -0.866326 0
0.000000 0.000084 0
-2.136439 1.287409 0
-3.122157 0.575334 0
-3.464883 0.224181 0
-3.678336 0.111146 0
-3.815243 0.066285 0
-3.899697 0.039235 0
-3.949766 0.018549 0
-3.961408 -0.000298 0
-3.940327 -0.017815 0
-3.885854 -0.035000 0
-3.803009 -0.057738 0
-3.673474 -0.102284 0
-3.449226 -0.215467 0
-2.939959 -0.517721 0
-1.803838 -1.306131 0
1.155441 -2.869699 0
6.007403 -2.883063 0
8.485203 -1.366905 0
9.582068 -0.560730 0
9.933629 -0.182655 0
10.005521 -0.046933 0
10.021513 -0.010617 0
10.024503 -0.001959 0
10.027048 -0.000484 0
10.029170 -0.000421 0
10.032157 -0.000527 0
10.034627 -0.000539 0
10.037488 -0.000527 0
10.040218 -0.000068 0
10.041977 0.001075 0
10.041221 0.002592 0
10.037636 0.003322 0
10.033945 0.002555 0
10.032882 0.001070 0
10.034323 0.000027 0
10.036489 -0.000473 0
10.039456 -0.000537 0
10.042090 -0.000103 0
10.043797 0.000450 0
10.044659 0.000156 0
10.045286 -0.000366 0
1.000000 -0.004572 0
1.008200 -0.014404 0
1.024667 -0.025743 0
1.050315 -0.038993 0
1.086631 -0.054874 0
1.135827 -0.074365 0
1.201052 -0.099030 0
1.286552 -0.129062 0
1.398143 -0.171803 0
1.544534 -0.233838 0
1.750726 -0.332272 0
2.030272 -0.466481 0
2.435829 -0.662496 0
3.017449 -0.916007 0
3.862159 -1.384147 0
5.364725 -1.430818 0
6.033575 -0.888874 0
6.369471 -0.522310 0
6.553742 -0.371368 0
6.735010 -0.337903 0
6.973496 -0.311101 0
7.175442 -0.244669 0
7.311076 -0.167305 0
7.394287 -0.098973 0
7.440753 -0.042344 0
7.460035 0.012316 0
7.453518 0.080858 0
7.408971 0.188175 0
7.300040 0.363509 0
7.057943 0.601212 0
6.574509 0.913859 0
5.822108 1.281896 0
4.740894 1.638333 0
3.419817 1.959566 0
1.819579 2.159474 0
0.000000 0.000512 0
0.000000 -1.104251 0
0.000000 0.000000 0
0.000000 -1.367053 0
0.000000 0.000261 0
-1.176081 1.998169 0
-1.667704 0.850195 0
-1.944389 0.355946 0
-2.191539 0.224222 0
-2.341299 0.141662 0
-2.445653 0.086085 0
-2.499405 0.039486 0
-2.511348 -0.006050 0
-2.476746 -0.048364 0
-2.396908 -0.087893 0
-2.275933 -0.135933 0
-2.127199 -0.226432 0
-1.908706 -0.469460 0
-1.405333 -1.053059 0
0.009062 -2.621067 0
2.445843 -4.999206 0
5.778967 -4.691060 0
7.126776 -2.287799 0
7.699476 -0.927006 0
7.746691 -0.271024 0
7.675847 -0.056261 0
7.660989 -0.012164 0
7.655456 -0.003558 0
7.658533 -0.003003 0
7.660447 -0.003286 0
7.664986 -0.003509 0
7.667544 -0.003429 0
7.671289 -0.003595 0
7.675286 -0.002890 0
7.679321 -0.000659 0
7.681087 0.002761 0
7.678502 0.004639 0
7.675048 0.003025 0
7.675017 -0.000259 0
7.678432 -0.002326 0
7.681363 -0.003303 0
7.686081 -0.003602 0
7.690935 -0.002796 0
7.695184 -0.001662 0
7.699875 -0.000970 0
7.701004 -0.000790 0
1.000000 -0.007064 0
1.007331 -0.022010 0
1.022713 -0.038850 0
1.046842 -0.058301 0
1.080962 -0.081495 0
1.127066 -0.109970 0
1.188139 -0.145852 0
1.267713 -0.190721 0
1.375250 -0.251833 0
1.507943 -0.343556 0
1.695582 -0.480435 0
1.945980 -0.676081 0
2.297633 -0.968026 0
2.814277 -1.365522 0
3.630941 -2.163210 0
5.217715 -2.092734 0
5.359387 -1.113633 0
5.378746 -0.623536 0
5.343233 -0.439660 0
5.314470 -0.446576 0
5.514056 -0.440734 0
5.688795 -0.342352 0
5.790752 -0.227391 0
5.844614 -0.133602 0
5.875313 -0.061718 0
5.897447 0.003001 0
5.918243 0.081532 0
5.940101 0.206404 0
5.968523 0.426625 0
5.942046 0.791435 0
5.694189 1.266414 0
5.153897 1.814236 0
4.328506 2.372080 0
3.149730 2.867380 0
1.714686 3.233372 0
0.000000 0.000335 0
0.000000 -1.682293 0
0.000000 0.000000 0
0.000000 -1.618765 0
0.000000 0.000333 0
-0.629345 2.354734 0
-0.924500 1.067049 0
-1.264377 0.559433 0
-1.499579 0.365165 0
-1.690648 0.228915 0
-1.810331 0.140419 0
-1.868896 0.060591 0
-1.862648 -0.014803 0
-1.793363 -0.091060 0
-1.661610 -0.163523 0
-1.482992 -0.230355 0
-1.283101 -0.337313 0
-0.984268 -0.677465 0
-0.587873 -1.745097 0
0.810825 -3.770888 0
2.502369 -6.562443 0
5.139671 -5.878864 0
4.865687 -2.596036 0
4.748667 -0.957480 0
4.395296 -0.167537 0
3.878762 0.007912 0
3.830425 0.002428 0
3.790842 -0.000393 0
3.811602 -0.003684 0
3.808746 -0.004557 0
3.832371 -0.005075 0
3.838096 -0.004578 0
3.849458 -0.005487 0
3.859462 -0.005214 0
3.871185 -0.002644 0
3.881253 0.003111 0
3.876336 0.007181 0
3.867796 0.004779 0
3.867561 -0.001101 0
3.882732 -0.004040 0
3.885478 -0.005374 0
3.893756 -0.006669 0
3.900590 -0.005935 0
3.899615 -0.005278 0
3.904352 -0.003574 0
3.905249 -0.001812 0
1.000000 -0.009259 0
1.006200 -0.028934 0
1.020278 -0.051026 0
1.042477 -0.076269 0
1.073738 -0.106214 0
1.115810 -0.142955 0
1.171245 -0.189041 0
1.243419 -0.248811 0
1.339826 -0.325547 0
1.459075 -0.438847 0
1.619473 -0.612613 0
1.825424 -0.851791 0
2.092616 -1.218203 0
2.474037 -1.769321 0
3.104133 -2.922345 0
4.375555 -2.537021 0
3.640795 -0.991932 0
3.029073 -0.511970 0
2.666522 -0.330230 0
2.277378 -0.447229 0
3.118212 -0.550669 0
3.487097 -0.421753 0
3.649487 -0.267029 0
3.714386 -0.153092 0
3.746030 -0.076156 0
3.772767 -0.015158 0
3.806898 0.053560 0
3.858864 0.155996 0
3.951360 0.362265 0
4.100410 0.776787 0
4.232199 1.418274 0
4.060205 2.155933 0
3.553331 2.921000 0
2.653381 3.632412 0
1.484355 4.175302 0
0.000000 0.000245 0
0.000000 -2.201917 0
0.000000 0.000000 0
0.000000 -1.769688 0
0.000000 0.000403 0
-0.382753 2.589844 0
-0.643886 1.256613 0
-0.982939 0.723993 0
-1.168337 0.497032 0
-1.359191 0.340540 0
-1.504952 0.200161 0
-1.566797 0.072967 0
-1.545205 -0.054395 0
-1.444296 -0.177032 0
-1.268560 -0.286534 0
-1.051390 -0.378182 0
-0.752294 -0.545619 0
-0.504773 -0.914410 0
-0.032661 -2.201922 0
0.902652 -4.598826 0
2.141587 -7.769672 0
3.871714 -6.203588 0
1.630616 -2.037561 0
0.407920 -0.625961 0
0.134546 0.285710 0
0.180566 0.305252 0
0.816786 0.044100 0
0.144543 0.008483 0
0.824211 -0.014467 0
0.371262 -0.016584 0
0.787957 -0.022299 0
0.699053 -0.014370 0
0.780452 -0.017275 0
0.834268 -0.016801 0
0.892137 -0.014611 0
0.939541 -0.000542 0
0.896831 0.013246 0
0.818293 0.008636 0
0.805992 -0.009824 0
0.883343 -0.013799 0
0.890344 -0.010364 0
0.925288 -0.013280 0
1.004715 -0.006551 0
0.950911 -0.004075 0
0.951999 -0.004582 0
0.952007 -0.001955 0
1.000000 -0.011027 0
1.004408 -0.034981 0
1.017102 -0.062064 0
1.036985 -0.092512 0
1.064671 -0.128425 0
1.101675 -0.172372 0
1.150001 -0.227519 0
1.212612 -0.298610 0
1.292204 -0.389850 0
1.398062 -0.522527 0
1.525991 -0.714896 0
1.654671 -0.978890 0
1.842399 -1.383135 0
2.050850 -2.012890 0
2.310053 -3.380179 0
2.009424 -2.436195 0
-0.009304 -0.251882 0
0.002840 0.000000 0
-0.000447 0.041426 0
0.111182 -0.735657 0
1.579245 -1.214954 0
2.159938 -0.682367 0
2.376681 -0.372854 0
2.447392 -0.195388 0
2.473011 -0.099081 0
2.488381 -0.035954 0
2.506995 0.026431 0
2.534791 0.113949 0
2.578681 0.272037 0
2.714353 0.611698 0
2.903776 1.292146 0
2.991416 2.248712 0
2.722070 3.272448 0
2.121454 4.191525 0
1.200713 4.931536 0
0.000000 0.000214 0
0.000000 -2.632402 0
0.000000 0.000000 0
0.000000 -1.863652 0
0.000000 0.000405 0
-0.243033 2.766816 0
-0.486093 1.451165 0
-0.752996 0.895079 0
-0.980815 0.605963 0
-1.159305 0.444346 0
-1.262596 0.273284 0
-1.353458 0.086349 0
-1.336030 -0.093207 0
-1.231408 -0.268116 0
-1.049187 -0.414986 0
-0.789696 -0.560769 0
-0.551334 -0.687151 0
-0.377495 -1.138034 0
0.141455 -2.645852 0
0.763548 -5.162410 0
1.488004 -8.462646 0
1.766314 -5.551847 0
-0.000370 -0.379212 0
-0.000206 0.000000 0
-0.000248 -0.022036 0
-0.586707 -0.428728 0
-0.382119 0.025477 0
-0.210300 -0.005151 0
-0.284950 -0.148790 0
-0.156824 0.018640 0
-0.151062 -0.214867 0
-0.066628 0.000219 0
0.041348 -0.092030 0
0.121972 -0.076699 0
0.215886 -0.070024 0
0.292080 0.000101 0
0.241128 0.084774 0
0.040224 0.062910 0
-0.006991 -0.042739 0
0.113954 -0.058031 0
0.138125 -0.032225 0
0.158731 -0.079872 0
0.251702 -0.022340 0
0.232214 0.028454 0
0.237077 -0.004281 0
0.236929 -0.001834 0
1.000000 -0.012076 0
1.001091 -0.039874 0
1.012948 -0.071873 0
1.030349 -0.106710 0
1.053938 -0.147612 0
1.085138 -0.197563 0
1.125402 -0.260038 0
1.176462 -0.339818 0
1.239924 -0.444232 0
1.321920 -0.588467 0
1.407874 -0.776839 0
1.497414 -1.054289 0
1.593394 -1.471755 0
1.630698 -2.068617 0
1.452055 -2.895829 0
0.161205 0.000075 0
-1.220308 1.684991 0
-0.689054 0.000000 0
-0.411498 1.219230 0
0.000000 -0.000100 0
1.119020 -1.844903 0
1.563155 -0.932111 0
1.712658 -0.450999 0
1.728600 -0.214742 0
1.724505 -0.102388 0
1.722829 -0.036907 0
1.735691 0.023858 0
1.753942 0.110118 0
1.776676 0.247346 0
1.856008 0.568727 0
2.030175 1.240955 0
2.159043 2.272226 0
2.045929 3.477776 0
1.649956 4.606081 0
0.941165 5.533034 0
0.000000 0.000202 0
0.000000 -2.970416 0
0.000000 0.000000 0
0.000000 -1.925342 0
0.000000 0.000286 0
-0.164827 2.900938 0
-0.360537 1.582987 0
-0.547018 1.040613 0
-0.787850 0.757067 0
-0.944883 0.520877 0
-1.067246 0.324416 0
-1.149659 0.119962 0
-1.126717 -0.132510 0
-0.982281 -0.360615 0
-0.793718 -0.569232 0
-0.610989 -0.696812 0
-0.392152 -0.809431 0
-0.199633 -1.357798 0
0.173817 -2.932193 0
0.536160 -5.460621 0
0.853305 -8.411446 0
0.242696 -0.000417 0
0.087324 4.970840 0
1.067349 0.000000 0
1.065514 0.119098 0
0.000000 -0.000178 0
-0.228606 -0.205834 0
0.014014 -0.053711 0
-0.281156 -0.048698 0
-0.152297 -0.102277 0
-0.244563 -0.080031 0
-0.157079 -0.137518 0
-0.105219 -0.137985 0
-0.103197 -0.128511 0
-0.068042 -0.123486 0
0.036582 -0.016703 0
0.085881 0.174428 0
-0.038658 0.167426 0
-0.289375 -0.057017 0
-0.505194 -0.106679 0
-0.410728 -0.039027 0
-0.307878 -0.085975 0
-0.283516 -0.053586 0
-0.181245 0.005279 0
-0.173108 -0.007606 0
-0.173230 -0.001775 0
1.000000 -0.011722 0
1.000158 -0.043262 0
1.008004 -0.080786 0
1.023211 -0.118743 0
1.042608 -0.163487 0
1.067533 -0.218106 0
1.098956 -0.285963 0
1.137601 -0.371901 0
1.183940 -0.482940 0
1.237283 -0.630012 0
1.291803 -0.827209 0
1.350375 -1.097619 0
1.360530 -1.468434 0
1.256353 -1.922430 0
0.888687 -2.439701 0
0.000000 0.000014 0
0.000000 1.358181 0
0.000000 0.000000 0
0.000000 1.476315 0
0.000000 0.000028 0
0.667691 -2.198403 0
1.014949 -1.062294 0
1.123304 -0.478738 0
1.104050 -0.202969 0
1.078402 -0.095386 0
1.084521 -0.043112 0
1.115715 0.006519 0
1.140886 0.087719 0
1.146979 0.206715 0
1.151231 0.449459 0
1.376272 1.098204 0
1.518317 2.238631 0
1.500234 3.598264 0
1.245403 4.898574 0
0.712907 5.987508 0
0.000000 0.000185 0
0.000000 -3.234777 0
0.000000 0.000000 0
0.000000 -1.969359 0
0.000000 0.000183 0
-0.114775 2.997555 0
-0.259237 1.695765 0
-0.432162 1.168556 0
-0.630113 0.860594 0
-0.734268 0.623156 0
-0.898127 0.404337 0
-0.926125 0.124408 0
-0.904643 -0.200332 0
-0.741989 -0.481239 0
-0.603402 -0.652616 0
-0.469476 -0.817774 0
-0.274996 -0.950422 0
-0.121767 -1.500257 0
0.129298 -3.116763 0
0.349607 -5.597286 0
0.451257 -8.274832 0
0.000000 -0.000482 0
0.000000 4.781365 0
0.000000 0.000000 0
0.000000 0.269243 0
0.000000 -0.000174 0
-0.083086 0.007473 0
0.027308 0.028476 0
-0.188320 -0.042357 0
-0.119957 -0.004786 0
-0.215936 -0.211812 0
-0.338448 -0.088966 0
-0.623740 -0.126521 0
-0.720853 -0.100497 0
-0.662819 -0.159489 0
-0.566022 -0.098415 0
-0.491149 0.132922 0
-0.475448 0.303068 0
-0.712878 0.255838 0
-0.974306 0.019629 0
-0.867370 -0.158513 0
-0.740460 -0.161294 0
-0.753774 -0.103391 0
-0.690951 -0.042213 0
-0.669870 -0.009416 0
-0.670640 -0.001681 0
1.000000 -0.012173 0
1.001243 -0.044990 0
1.002675 -0.086623 0
1.015842 -0.128853 0
1.030369 -0.175976 0
1.048593 -0.233623 0
1.070946 -0.304878 0
1.097365 -0.394204 0
1.127028 -0.508025 0
1.158547 -0.657497 0
1.188240 -0.849215 0
1.194243 -1.098271 0
1.156576 -1.411579 0
0.999853 -1.766634 0
0.647444 -2.091760 0
0.000000 -0.000004 0
0.000000 1.116151 0
0.000000 0.000000 0
0.000000 1.646756 0
0.000000 0.000105 0
0.429226 -2.494468 0
0.738017 -1.223702 0
0.746349 -0.508022 0
0.729212 -0.186004 0
0.749471 -0.089888 0
0.761942 -0.060787 0
0.835175 -0.012215 0
0.887702 0.090110 0
0.884621 0.240725 0
0.838650 0.421979 0
0.976057 1.006021 0
1.079453 2.192891 0
1.099771 3.652442 0
0.927348 5.109971 0
0.524509 6.330092 0
0.000000 0.000162 0
0.000000 -3.426717 0
0.000000 0.000000 0
0.000000 -1.998975 0
0.000000 0.000106 0
-0.074998 3.066845 0
-0.177585 1.786112 0
-0.297925 1.277971 0
-0.396993 0.950412 0
-0.530139 0.692402 0
-0.629851 0.447201 0
-0.635463 0.124129 0
-0.594519 -0.250360 0
-0.508223 -0.553412 0
-0.396202 -0.743643 0
-0.339019 -0.906995 0
-0.216881 -1.031968 0
-0.080001 -1.616549 0
0.079938 -3.233875 0
0.223849 -5.666678 0
0.242720 -8.187701 0
0.000000 -0.000547 0
0.000000 4.681907 0
0.000000 0.000000 0
0.000000 0.066159 0
0.000000 0.000050 0
-0.209568 -0.223321 0
-0.066664 0.013633 0
0.009555 0.045546 0
0.031206 -0.084608 0
-0.177071 0.059798 0
-0.308088 0.123470 0
-0.548466 0.106749 0
-0.676781 -0.103506 0
-0.767987 -0.222584 0
-0.907461 -0.126578 0
-0.902529 0.116455 0
-0.801234 0.309327 0
-0.724051 0.262245 0
-0.600699 -0.007810 0
-0.482424 -0.188694 0
-0.401490 -0.158682 0
-0.413890 -0.085277 0
-0.324616 -0.048425 0
-0.313226 -0.020611 0
-0.314006 -0.000786 0
1.000000 -0.012512 0
0.999721 -0.044968 0
1.000145 -0.090126 0
1.008128 -0.136464 0
1.017394 -0.184445 0
1.029007 -0.244072 0
1.042910 -0.317174 0
1.058357 -0.407791 0
1.073964 -0.522093 0
1.088549 -0.669185 0
1.092585 -0.850052 0
1.068425 -1.077352 0
0.999737 -1.344021 0
0.816856 -1.596583 0
0.477423 -1.799792 0
0.000000 -0.000002 0
0.000000 0.943799 0
0.000000 0.000000 0
0.000000 1.751062 0
0.000000 0.000071 0
0.265069 -2.670733 0
0.423205 -1.265252 0
0.340743 -0.473102 0
0.398023 -0.204966 0
0.484841 -0.116333 0
0.543026 -0.097962 0
0.655175 -0.073966 0
0.747025 0.056074 0
0.751939 0.238109 0
0.639777 0.390941 0
0.712663 0.944091 0
0.793737 2.159454 0
0.816269 3.695612 0
0.679326 5.266743 0
0.391951 6.581011 0
0.000000 0.000145 0
0.000000 -3.570502 0
0.000000 0.000000 0
0.000000 -2.017501 0
0.000000 0.000036 0
-0.042886 3.111204 0
-0.103452 1.838435 0
-0.156848 1.308974 0
-0.147566 1.009208 0
-0.283041 0.772183 0
-0.305215 0.471742 0
-0.289728 0.101792 0
-0.219450 -0.281768 0
-0.231230 -0.608165 0
-0.173143 -0.760910 0
-0.198704 -0.932543 0
-0.111865 -1.116197 0
-0.047169 -1.690224 0
0.061903 -3.311231 0
0.149714 -5.701470 0
0.141757 -8.131572 0
0.000000 -0.000604 0
0.000000 4.625904 0
0.000000 0.000000 0
0.000000 0.135712 0
0.000000 0.000411 0
-0.063910 0.050128 0
-0.028032 -0.111769 0
-0.019421 -0.104999 0
-0.104483 0.114649 0
-0.085236 0.005331 0
-0.114010 0.148721 0
-0.017158 0.109437 0
-0.079220 0.039990 0
-0.286223 -0.011859 0
-0.519915 -0.012314 0
-0.599160 0.064931 0
-0.508343 0.188836 0
-0.323793 0.127489 0
-0.124476 -0.135018 0
-0.118511 -0.286012 0
-0.178790 -0.205161 0
-0.282170 -0.152596 0
-0.003814 -0.106643 0
0.016735 -0.016213 0
0.017419 -0.000678 0
1.000000 -0.011990 0
0.998984 -0.045077 0
1.000416 -0.092000 0
1.000188 -0.139890 0
1.005056 -0.189335 0
1.010956 -0.249950 0
1.017777 -0.323659 0
1.023905 -0.414075 0
1.028461 -0.527345 0
1.031581 -0.669412 0
1.008051 -0.836333 0
0.973353 -1.038846 0
0.866804 -1.250571 0
0.661315 -1.432350 0
0.374546 -1.568969 0
0.000000 -0.000005 0
0.000000 0.810598 0
0.000000 0.000000 0
0.000000 1.816357 0
0.000000 0.000063 0
0.160883 -2.765317 0
0.227790 -1.272133 0
0.140912 -0.491905 0
0.324616 -0.278227 0
0.422803 -0.182690 0
0.520620 -0.169800 0
0.657466 -0.142774 0
0.747580 0.028182 0
0.687293 0.309365 0
0.501430 0.447116 0
0.477791 0.907487 0
0.569165 2.126583 0
0.603067 3.725665 0
0.505801 5.381535 0
0.294593 6.764861 0
0.000000 0.000138 0
0.000000 -3.677590 0
0.000000 0.000000 0
0.000000 -2.026537 0
0.000000 -0.000013 0
-0.014710 3.133049 0
-0.036682 1.859045 0
-0.037875 1.306201 0
0.022484 1.031173 0
-0.055109 0.793295 0
0.018159 0.451478 0
0.047943 0.069236 0
0.084188 -0.287801 0
0.043650 -0.583052 0
-0.044629 -0.764464 0
0.021270 -0.946216 0
-0.012149 -1.128953 0
-0.008597 -1.727764 0
0.062488 -3.359883 0
0.115143 -5.717788 0
0.094633 -8.091887 0
0.000000 -0.000616 0
0.000000 4.591115 0
0.000000 0.000000 0
0.000000 0.025546 0
0.000000 0.000332 0
0.142933 -0.205390 0
0.099586 -0.014845 0
-0.209087 0.094470 0
0.047996 -0.042493 0
-0.105211 0.065889 0
-0.048700 0.079894 0
-0.010648 0.084477 0
0.009938 0.068690 0
-0.032387 0.059456 0
-0.100839 0.073696 0
-0.180248 0.109043 0
-0.156124 0.133087 0
0.000698 0.016565 0
0.063921 -0.139196 0
-0.067588 -0.153939 0
-0.213143 -0.053947 0
-0.387227 -0.197268 0
-0.512361 -0.239729 0
-0.433198 -0.034206 0
-0.433038 -0.001665 0
1.000000 -0.011858 0
0.999790 -0.045229 0
0.999347 -0.090893 0
0.995781 -0.139430 0
0.996228 -0.191333 0
0.997135 -0.252210 0
0.998724 -0.325458 0
0.996264 -0.414625 0
0.993422 -0.527003 0
0.976416 -0.656120 0
0.940725 -0.812782 0
0.868267 -0.986950 0
0.750883 -1.144314 0
0.555689 -1.281535 0
0.305290 -1.376547 0
0.000000 -0.000010 0
0.000000 0.704079 0
0.000000 0.000000 0
0.000000 1.854024 0
0.000000 0.000069 0
0.091756 -2.816517 0
0.122427 -1.252470 0
0.041322 -0.535070 0
0.265972 -0.385376 0
0.343714 -0.241775 0
0.525581 -0.248146 0
0.670155 -0.219220 0
0.729933 0.036986 0
0.603572 0.395645 0
0.528936 0.525022 0
0.329581 0.900741 0
0.402740 2.079277 0
0.448142 3.736166 0
0.387567 5.464167 0
0.226194 6.904724 0
0.000000 0.000138 0
0.000000 -3.759049 0
0.000000 0.000000 0
0.000000 -2.026985 0
0.000000 -0.000038 0
0.011328 3.134676 0
0.023196 1.853259 0
0.062617 1.271105 0
0.135124 1.020235 0
0.220052 0.774948 0
0.295716 0.405786 0
0.335143 0.059531 0
0.320020 -0.279024 0
0.290334 -0.525725 0
0.144718 -0.746590 0
0.166737 -0.953333 0
0.067793 -1.097085 0
0.032352 -1.737995 0
0.080558 -3.390428 0
0.110083 -5.722046 0
0.078423 -8.057883 0
0.000000 -0.000595 0
0.000000 4.565349 0
0.000000 0.000000 0
0.000000 0.227080 0
0.000000 0.000295 0
-0.024410 -0.013618 0
-0.153575 0.113518 0
0.057269 -0.071988 0