# vtk DataFile Version 2.0
generated by CFD-lab course output (written by Tobias Neckel) 
ASCII

DATASET STRUCTURED_GRID
DIMENSIONS  81 26 1 
POINTS 2106 float

0.000000 0.000000 0
0.125000 0.000000 0
0.250000 0.000000 0
0.375000 0.000000 0
0.500000 0.000000 0
0.625000 0.000000 0
0.750000 0.000000 0
0.875000 0.000000 0
1.000000 0.000000 0
1.125000 0.000000 0
1.250000 0.000000 0
1.375000 0.000000 0
1.500000 0.000000 0
1.625000 0.000000 0
1.750000 0.000000 0
1.875000 0.000000 0
2.000000 0.000000 0
2.125000 0.000000 0
2.250000 0.000000 0
2.375000 0.000000 0
2.500000 0.000000 0
2.625000 0.000000 0
2.750000 0.000000 0
2.875000 0.000000 0
3.000000 0.000000 0
3.125000 0.000000 0
3.250000 0.000000 0
3.375000 0.000000 0
3.500000 0.000000 0
3.625000 0.000000 0
3.750000 0.000000 0
3.875000 0.000000 0
4.000000 0.000000 0
4.125000 0.000000 0
4.250000 0.000000 0
4.375000 0.000000 0
4.500000 0.000000 0
4.625000 0.000000 0
4.750000 0.000000 0
4.875000 0.000000 0
5.000000 0.000000 0
5.125000 0.000000 0
5.250000 0.000000 0
5.375000 0.000000 0
5.500000 0.000000 0
5.625000 0.000000 0
5.750000 0.000000 0
5.875000 0.000000 0
6.000000 0.000000 0
6.125000 0.000000 0
6.250000 0.000000 0
6.375000 0.000000 0
6.500000 0.000000 0
6.625000 0.000000 0
6.750000 0.000000 0
6.875000 0.000000 0
7.000000 0.000000 0
7.125000 0.000000 0
7.250000 0.000000 0
7.375000 0.000000 0
7.500000 0.000000 0
7.625000 0.000000 0
7.750000 0.000000 0
7.875000 0.000000 0
8.000000 0.000000 0
8.125000 0.000000 0
8.250000 0.000000 0
8.375000 0.000000 0
8.500000 0.000000 0
8.625000 0.000000 0
8.750000 0.000000 0
8.875000 0.000000 0
9.000000 0.000000 0
9.125000 0.000000 0
9.250000 0.000000 0
9.375000 0.000000 0
9.500000 0.000000 0
9.625000 0.000000 0
9.750000 0.000000 0
9.875000 0.000000 0
10.000000 0.000000 0
0.000000 0.080000 0
0.125000 0.080000 0
0.250000 0.080000 0
0.375000 0.080000 0
0.500000 0.080000 0
0.625000 0.080000 0
0.750000 0.080000 0
0.875000 0.080000 0
1.000000 0.080000 0
1.125000 0.080000 0
1.250000 0.080000 0
1.375000 0.080000 0
1.500000 0.080000 0
1.625000 0.080000 0
1.750000 0.080000 0
1.875000 0.080000 0
2.000000 0.080000 0
2.125000 0.080000 0
2.250000 0.080000 0
2.375000 0.080000 0
2.500000 0.080000 0
2.625000 0.080000 0
2.750000 0.080000 0
2.875000 0.080000 0
3.000000 0.080000 0
3.125000 0.080000 0
3.250000 0.080000 0
3.375000 0.080000 0
3.500000 0.080000 0
3.625000 0.080000 0
3.750000 0.080000 0
3.875000 0.080000 0
4.000000 0.080000 0
4.125000 0.080000 0
4.250000 0.080000 0
4.375000 0.080000 0
4.500000 0.080000 0
4.625000 0.080000 0
4.750000 0.080000 0
4.875000 0.080000 0
5.000000 0.080000 0
5.125000 0.080000 0
5.250000 0.080000 0
5.375000 0.080000 0
5.500000 0.080000 0
5.625000 0.080000 0
5.750000 0.080000 0
5.875000 0.080000 0
6.000000 0.080000 0
6.125000 0.080000 0
6.250000 0.080000 0
6.375000 0.080000 0
6.500000 0.080000 0
6.625000 0.080000 0
6.750000 0.080000 0
6.875000 0.080000 0
7.000000 0.080000 0
7.125000 0.080000 0
7.250000 0.080000 0
7.375000 0.080000 0
7.500000 0.080000 0
7.625000 0.080000 0
7.750000 0.080000 0
7.875000 0.080000 0
8.000000 0.080000 0
8.125000 0.080000 0
8.250000 0.080000 0
8.375000 0.080000 0
8.500000 0.080000 0
8.625000 0.080000 0
8.750000 0.080000 0
8.875000 0.080000 0
9.000000 0.080000 0
9.125000 0.080000 0
9.250000 0.080000 0
9.375000 0.080000 0
9.500000 0.080000 0
9.625000 0.080000 0
9.750000 0.080000 0
9.875000 0.080000 0
10.000000 0.080000 0
0.000000 0.160000 0
0.125000 0.160000 0
0.250000 0.160000 0
0.375000 0.160000 0
0.500000 0.160000 0
0.625000 0.160000 0
0.750000 0.160000 0
0.875000 0.160000 0
1.000000 0.160000 0
1.125000 0.160000 0
1.250000 0.160000 0
1.375000 0.160000 0
1.500000 0.160000 0
1.625000 0.160000 0
1.750000 0.160000 0
1.875000 0.160000 0
2.000000 0.160000 0
2.125000 0.160000 0
2.250000 0.160000 0
2.375000 0.160000 0
2.500000 0.160000 0
2.625000 0.160000 0
2.750000 0.160000 0
2.875000 0.160000 0
3.000000 0.160000 0
3.125000 0.160000 0
3.250000 0.160000 0
3.375000 0.160000 0
3.500000 0.160000 0
3.625000 0.160000 0
3.750000 0.160000 0
3.875000 0.160000 0
4.000000 0.160000 0
4.125000 0.160000 0
4.250000 0.160000 0
4.375000 0.160000 0
4.500000 0.160000 0
4.625000 0.160000 0
4.750000 0.160000 0
4.875000 0.160000 0
5.000000 0.160000 0
5.125000 0.160000 0
5.250000 0.160000 0
5.375000 0.160000 0
5.500000 0.160000 0
5.625000 0.160000 0
5.750000 0.160000 0
5.875000 0.160000 0
6.000000 0.160000 0
6.125000 0.160000 0
6.250000 0.160000 0
6.375000 0.160000 0
6.500000 0.160000 0
6.625000 0.160000 0
6.750000 0.160000 0
6.875000 0.160000 0
7.000000 0.160000 0
7.125000 0.160000 0
7.250000 0.160000 0
7.375000 0.160000 0
7.500000 0.160000 0
7.625000 0.160000 0
7.750000 0.160000 0
7.875000 0.160000 0
8.000000 0.160000 0
8.125000 0.160000 0
8.250000 0.160000 0
8.375000 0.160000 0
8.500000 0.160000 0
8.625000 0.160000 0
8.750000 0.160000 0
8.875000 0.160000 0
9.000000 0.160000 0
9.125000 0.160000 0
9.250000 0.160000 0
9.375000 0.160000 0
9.500000 0.160000 0
9.625000 0.160000 0
9.750000 0.160000 0
9.875000 0.160000 0
10.000000 0.160000 0
0.000000 0.240000 0
0.125000 0.240000 0
0.250000 0.240000 0
0.375000 0.240000 0
0.500000 0.240000 0
0.625000 0.240000 0
0.750000 0.240000 0
0.875000 0.240000 0
1.000000 0.240000 0
1.125000 0.240000 0
1.250000 0.240000 0
1.375000 0.240000 0
1.500000 0.240000 0
1.625000 0.240000 0
1.750000 0.240000 0
1.875000 0.240000 0
2.000000 0.240000 0
2.125000 0.240000 0
2.250000 0.240000 0
2.375000 0.240000 0
2.500000 0.240000 0
2.625000 0.240000 0
2.750000 0.240000 0
2.875000 0.240000 0
3.000000 0.240000 0
3.125000 0.240000 0
3.250000 0.240000 0
3.375000 0.240000 0
3.500000 0.240000 0
3.625000 0.240000 0
3.750000 0.240000 0
3.875000 0.240000 0
4.000000 0.240000 0
4.125000 0.240000 0
4.250000 0.240000 0
4.375000 0.240000 0
4.500000 0.240000 0
4.625000 0.240000 0
4.750000 0.240000 0
4.875000 0.240000 0
5.000000 0.240000 0
5.125000 0.240000 0
5.250000 0.240000 0
5.375000 0.240000 0
5.500000 0.240000 0
5.625000 0.240000 0
5.750000 0.240000 0
5.875000 0.240000 0
6.000000 0.240000 0
6.125000 0.240000 0
6.250000 0.240000 0
6.375000 0.240000 0
6.500000 0.240000 0
6.625000 0.240000 0
6.750000 0.240000 0
6.875000 0.240000 0
7.000000 0.240000 0
7.125000 0.240000 0
7.250000 0.240000 0
7.375000 0.240000 0
7.500000 0.240000 0
7.625000 0.240000 0
7.750000 0.240000 0
7.875000 0.240000 0
8.000000 0.240000 0
8.125000 0.240000 0
8.250000 0.240000 0
8.375000 0.240000 0
8.500000 0.240000 0
8.625000 0.240000 0
8.750000 0.240000 0
8.875000 0.240000 0
9.000000 0.240000 0
9.125000 0.240000 0
9.250000 0.240000 0
9.375000 0.240000 0
9.500000 0.240000 0
9.625000 0.240000 0
9.750000 0.240000 0
9.875000 0.240000 0
10.000000 0.240000 0
0.000000 0.320000 0
0.125000 0.320000 0
0.250000 0.320000 0
0.375000 0.320000 0
0.500000 0.320000 0
0.625000 0.320000 0
0.750000 0.320000 0
0.875000 0.320000 0
1.000000 0.320000 0
1.125000 0.320000 0
1.250000 0.320000 0
1.375000 0.320000 0
1.500000 0.320000 0
1.625000 0.320000 0
1.750000 0.320000 0
1.875000 0.320000 0
2.000000 0.320000 0
2.125000 0.320000 0
2.250000 0.320000 0
2.375000 0.320000 0
2.500000 0.320000 0
2.625000 0.320000 0
2.750000 0.320000 0
2.875000 0.320000 0
3.000000 0.320000 0
3.125000 0.320000 0
3.250000 0.320000 0
3.375000 0.320000 0
3.500000 0.320000 0
3.625000 0.320000 0
3.750000 0.320000 0
3.875000 0.320000 0
4.000000 0.320000 0
4.125000 0.320000 0
4.250000 0.320000 0
4.375000 0.320000 0
4.500000 0.320000 0
4.625000 0.320000 0
4.750000 0.320000 0
4.875000 0.320000 0
5.000000 0.320000 0
5.125000 0.320000 0
5.250000 0.320000 0
5.375000 0.320000 0
5.500000 0.320000 0
5.625000 0.320000 0
5.750000 0.320000 0
5.875000 0.320000 0
6.000000 0.320000 0
6.125000 0.320000 0
6.250000 0.320000 0
6.375000 0.320000 0
6.500000 0.320000 0
6.625000 0.320000 0
6.750000 0.320000 0
6.875000 0.320000 0
7.000000 0.320000 0
7.125000 0.320000 0
7.250000 0.320000 0
7.375000 0.320000 0
7.500000 0.320000 0
7.625000 0.320000 0
7.750000 0.320000 0
7.875000 0.320000 0
8.000000 0.320000 0
8.125000 0.320000 0
8.250000 0.320000 0
8.375000 0.320000 0
8.500000 0.320000 0
8.625000 0.320000 0
8.750000 0.320000 0
8.875000 0.320000 0
9.000000 0.320000 0
9.125000 0.320000 0
9.250000 0.320000 0
9.375000 0.320000 0
9.500000 0.320000 0
9.625000 0.320000 0
9.750000 0.320000 0
9.875000 0.320000 0
10.000000 0.320000 0
0.000000 0.400000 0
0.125000 0.400000 0
0.250000 0.400000 0
0.375000 0.400000 0
0.500000 0.400000 0
0.625000 0.400000 0
0.750000 0.400000 0
0.875000 0.400000 0
1.000000 0.400000 0
1.125000 0.400000 0
1.250000 0.400000 0
1.375000 0.400000 0
1.500000 0.400000 0
1.625000 0.400000 0
1.750000 0.400000 0
1.875000 0.400000 0
2.000000 0.400000 0
2.125000 0.400000 0
2.250000 0.400000 0
2.375000 0.400000 0
2.500000 0.400000 0
2.625000 0.400000 0
2.750000 0.400000 0
2.875000 0.400000 0
3.000000 0.400000 0
3.125000 0.400000 0
3.250000 0.400000 0
3.375000 0.400000 0
3.500000 0.400000 0
3.625000 0.400000 0
3.750000 0.400000 0
3.875000 0.400000 0
4.000000 0.400000 0
4.125000 0.400000 0
4.250000 0.400000 0
4.375000 0.400000 0
4.500000 0.400000 0
4.625000 0.400000 0
4.750000 0.400000 0
4.875000 0.400000 0
5.000000 0.400000 0
5.125000 0.400000 0
5.250000 0.400000 0
5.375000 0.400000 0
5.500000 0.400000 0
5.625000 0.400000 0
5.750000 0.400000 0
5.875000 0.400000 0
6.000000 0.400000 0
6.125000 0.400000 0
6.250000 0.400000 0
6.375000 0.400000 0
6.500000 0.400000 0
6.625000 0.400000 0
6.750000 0.400000 0
6.875000 0.400000 0
7.000000 0.400000 0
7.125000 0.400000 0
7.250000 0.400000 0
7.375000 0.400000 0
7.500000 0.400000 0
7.625000 0.400000 0
7.750000 0.400000 0
7.875000 0.400000 0
8.000000 0.400000 0
8.125000 0.400000 0
8.250000 0.400000 0
8.375000 0.400000 0
8.500000 0.400000 0
8.625000 0.400000 0
8.750000 0.400000 0
8.875000 0.400000 0
9.000000 0.400000 0
9.125000 0.400000 0
9.250000 0.400000 0
9.375000 0.400000 0
9.500000 0.400000 0
9.625000 0.400000 0
9.750000 0.400000 0
9.875000 0.400000 0
10.000000 0.400000 0
0.000000 0.480000 0
0.125000 0.480000 0
0.250000 0.480000 0
0.375000 0.480000 0
0.500000 0.480000 0
[...]
POINT_DATA 2106 

VECTORS velocity float
0.500000 0.000000 0
0.000001 0.000000 0
0.000001 0.000000 0
0.000001 0.000000 0
0.000001 0.000000 0
0.000001 0.000000 0
0.000001 0.000000 0
-0.000000 0.000000 0
-0.000002 0.000000 0
-0.000008 0.000000 0
-0.000017 0.000000 0
-0.000036 0.000000 0
-0.000071 0.000000 0
-0.000127 0.000000 0
-0.000189 0.000000 0
-0.000060 0.000000 0
0.000679 0.000000 0
0.000332 0.000000 0
-0.000202 0.000000 0
-0.000183 0.000000 0
0.000047 0.000000 0
0.000137 0.000000 0
0.000101 0.000000 0
0.000061 0.000000 0
0.000052 0.000000 0
0.000056 0.000000 0
0.000058 0.000000 0
0.000054 0.000000 0
0.000049 0.000000 0
0.000045 0.000000 0
0.000046 0.000000 0
0.000106 0.000000 0
0.000475 0.000000 0
-0.002611 0.000000 0
-0.000061 0.000000 0
0.000000 0.000000 0
0.000000 0.000000 0
0.000000 0.000000 0
0.000000 0.000000 0
0.000000 0.000000 0
0.000006 0.000000 0
0.000001 0.000000 0
-0.000005 0.000000 0
0.000015 0.000000 0
0.000041 0.000000 0
0.000070 0.000000 0
0.000091 0.000000 0
0.000106 0.000000 0
0.000109 0.000000 0
0.000082 0.000000 0
0.000019 0.000000 0
-0.000063 0.000000 0
-0.000144 0.000000 0
-0.000010 0.000000 0
0.001202 0.000000 0
0.001226 0.000000 0
-0.001290 0.000000 0
-0.000576 0.000000 0
0.000123 0.000000 0
0.000046 0.000000 0
-0.000029 0.000000 0
0.000045 0.000000 0
0.000105 0.000000 0
0.000114 0.000000 0
0.000092 0.000000 0
0.000062 0.000000 0
0.000040 0.000000 0
0.000021 0.000000 0
0.000010 0.000000 0
0.000004 0.000000 0
-0.000013 0.000000 0
-0.000032 0.000000 0
-0.000048 0.000000 0
-0.000054 0.000000 0
-0.000047 0.000000 0
-0.000025 0.000000 0
0.000003 0.000000 0
0.000030 0.000000 0
0.000053 0.000000 0
0.000068 0.000000 0
0.000072 0.000000 0
1.000000 -0.001826 0
1.007164 -0.006243 0
1.022551 -0.011917 0
1.047435 -0.018668 0
1.083540 -0.026800 0
1.133267 -0.036779 0
1.199846 -0.049423 0
1.288104 -0.064612 0
1.401587 -0.086743 0
1.556596 -0.117903 0
1.766956 -0.169533 0
2.075675 -0.237563 0
2.495676 -0.336146 0
3.110504 -0.452630 0
3.926652 -0.661152 0
5.274981 -0.702684 0
6.162489 -0.469265 0
6.657055 -0.290715 0
6.977175 -0.207249 0
7.244090 -0.178543 0
7.507859 -0.159152 0
7.729986 -0.128502 0
7.895792 -0.091223 0
8.004199 -0.054412 0
8.063249 -0.021939 0
8.077606 0.011372 0
8.043404 0.051167 0
7.943627 0.111733 0
7.737508 0.205401 0
7.364329 0.329272 0
6.791358 0.476357 0
5.934664 0.643097 0
4.791122 0.838850 0
3.377757 0.996234 0
1.725193 1.040647 0
0.000000 -0.000039 0
0.000000 -0.517636 0
0.000000 0.000000 0
0.000000 -0.906232 0
0.000000 -0.000005 0
-2.161987 1.316762 0
-3.195077 0.564570 0
-3.540095 0.225637 0
-3.769102 0.108200 0
-3.876316 0.055305 0
-3.932129 0.028067 0
-3.960759 0.012956 0
-3.967321 0.001250 0
-3.952805 -0.010782 0
-3.917297 -0.025312 0
-3.856343 -0.048234 0
-3.746553 -0.096864 0
-3.522934 -0.211686 0
-3.024271 -0.502030 0
-1.895536 -1.287791 0
1.094091 -2.934416 0
6.028246 -2.964302 0
8.532104 -1.378212 0
9.627486 -0.560444 0
9.974175 -0.185418 0
10.055740 -0.055722 0
10.091328 -0.019013 0
10.104654 -0.005415 0
10.107631 -0.000573 0
10.109425 0.001221 0
10.109521 0.003640 0
10.103177 0.005344 0
10.095796 0.003956 0
10.094228 0.001444 0
10.096725 0.001009 0
10.096280 0.001873 0
10.095122 0.002438 0
10.093097 0.002812 0
10.090698 0.002789 0
10.088487 0.002207 0
10.087942 0.001385 0
10.088996 0.001313 0
10.088982 0.002151 0
10.086788 0.002652 0
10.084419 0.001354 0
10.084293 0.000098 0
1.000000 -0.004582 0
1.008214 -0.014428 0
1.024697 -0.025769 0
1.050351 -0.039029 0
1.086699 -0.054929 0
1.135949 -0.074432 0
1.201230 -0.099092 0
1.286772 -0.129111 0
1.398393 -0.171831 0
1.544797 -0.233832 0
1.750983 -0.332207 0
2.030441 -0.466378 0
2.435990 -0.662287 0
3.017215 -0.915821 0
3.861479 -1.385261 0
5.365998 -1.430933 0
6.049649 -0.884524 0
6.363919 -0.521395 0
6.549532 -0.375699 0
6.735927 -0.339634 0
6.974960 -0.310970 0
7.174271 -0.248274 0
7.315540 -0.175493 0
7.407276 -0.107170 0
7.459729 -0.046977 0
7.480954 0.012705 0
7.472097 0.085750 0
7.421559 0.195777 0
7.304749 0.370754 0
7.057517 0.605539 0
6.571972 0.914989 0
5.821052 1.280155 0
4.746058 1.636424 0
3.431457 1.962198 0
1.821935 2.161768 0
0.000000 0.000330 0
0.000000 -1.103795 0
0.000000 0.000000 0
0.000000 -1.383659 0
0.000000 0.000016 0
-1.163560 2.044855 0
-1.722158 0.881993 0
-2.047829 0.367380 0
-2.271018 0.215186 0
-2.351608 0.104342 0
-2.409025 0.054048 0
-2.437747 0.022527 0
-2.439662 -0.005086 0
-2.414267 -0.032011 0
-2.365432 -0.061731 0
-2.297813 -0.109271 0
-2.187443 -0.213377 0
-1.962862 -0.462256 0
-1.455237 -1.041530 0
-0.011981 -2.635746 0
2.459179 -5.071215 0
5.765413 -4.760324 0
7.122850 -2.303508 0
7.685592 -0.922920 0
7.716856 -0.274077 0
7.650929 -0.074972 0
7.664243 -0.031300 0
7.671181 -0.010428 0
7.670492 -0.003048 0
7.674021 -0.001204 0
7.680679 0.004005 0
7.675912 0.008790 0
7.667302 0.005733 0
7.667531 -0.000589 0
7.676289 -0.001308 0
7.676950 0.001031 0
7.678280 0.002044 0
7.678477 0.002837 0
7.678395 0.002956 0
7.677631 0.001770 0
7.678965 -0.000320 0
7.683743 -0.000659 0
7.687486 0.001419 0
7.687484 0.002926 0
7.686640 0.001603 0
7.686632 0.000176 0
1.000000 -0.007082 0
1.007355 -0.022047 0
1.022754 -0.038883 0
1.046868 -0.058348 0
1.081024 -0.081582 0
1.127205 -0.110078 0
1.188350 -0.145949 0
1.267971 -0.190795 0
1.375537 -0.251878 0
1.508255 -0.343560 0
1.695906 -0.480344 0
1.946202 -0.675967 0
2.298024 -0.967681 0
2.814127 -1.364941 0
3.630095 -2.164372 0
5.208443 -2.103111 0
5.407957 -1.107934 0
5.408316 -0.610639 0
5.344613 -0.445333 0
5.311281 -0.450816 0
5.511524 -0.439691 0
5.679011 -0.346471 0
5.791151 -0.240345 0
5.856812 -0.146692 0
5.895859 -0.069092 0
5.920787 0.003457 0
5.938753 0.089181 0
5.953567 0.218837 0
5.967990 0.438389 0
5.933161 0.798251 0
5.682213 1.267696 0
5.144682 1.811683 0
4.322038 2.368192 0
3.150539 2.867673 0
1.718931 3.236780 0
0.000000 0.000038 0
0.000000 -1.683598 0
0.000000 0.000000 0
0.000000 -1.650907 0
0.000000 0.000000 0
-0.666360 2.418946 0
-0.959954 1.130503 0
-1.301029 0.576908 0
-1.423568 0.302620 0
-1.494604 0.143631 0
-1.587184 0.083198 0
-1.627640 0.032565 0
-1.632315 -0.013775 0
-1.591313 -0.058287 0
-1.513812 -0.099841 0
-1.422500 -0.162145 0
-1.287598 -0.311232 0
-1.075101 -0.680296 0
-0.596802 -1.750592 0
0.797059 -3.793015 0
2.498670 -6.631947 0
5.126178 -5.949050 0
4.841950 -2.607125 0
4.708354 -0.940606 0
4.328306 -0.163232 0
3.744894 -0.022049 0
3.816153 -0.031972 0
3.824844 -0.009412 0
3.799641 -0.002389 0
3.791106 -0.005297 0
3.828274 0.002431 0
3.825516 0.013907 0
3.788561 0.009322 0
3.775173 -0.004306 0
3.820805 -0.005018 0
3.811287 0.000601 0
3.817047 0.001463 0
3.816345 0.002740 0
3.818108 0.003332 0
3.813927 0.001844 0
3.811975 -0.002524 0
3.825008 -0.004138 0
3.838796 -0.000242 0
3.836262 0.003195 0
3.832295 0.001901 0
3.832331 0.000117 0
1.000000 -0.009288 0
1.006245 -0.028988 0
1.020341 -0.051057 0
1.042475 -0.076321 0
1.073791 -0.106344 0
1.115991 -0.143120 0
1.171532 -0.189182 0
1.243759 -0.248910 0
1.340190 -0.325611 0
1.459463 -0.438867 0
1.619895 -0.612492 0
1.825669 -0.851732 0
2.093334 -1.217758 0
2.474151 -1.768345 0
3.104883 -2.917622 0
4.376497 -2.568763 0
3.620928 -1.012442 0
3.032088 -0.480854 0
2.666807 -0.313596 0
2.272775 -0.446456 0
3.075557 -0.546316 0
3.479727 -0.427234 0
3.673104 -0.289285 0
3.766650 -0.174182 0
3.818133 -0.087920 0
3.852109 -0.014746 0
3.880923 0.064772 0
3.917343 0.177067 0
3.992082 0.383815 0
4.105536 0.788438 0
4.222626 1.419617 0
4.048301 2.150668 0
3.544628 2.912676 0
2.651133 3.628188 0
1.487125 4.178114 0
0.000000 -0.000024 0
0.000000 -2.204265 0
0.000000 0.000000 0
0.000000 -1.810160 0
0.000000 -0.000012 0
-0.397823 2.659228 0
-0.623891 1.288183 0
-0.806997 0.664095 0
-0.881165 0.339076 0
-1.031677 0.209058 0
-1.133162 0.139192 0
-1.199881 0.051413 0
-1.218465 -0.028334 0
-1.157726 -0.107852 0
-1.035840 -0.169770 0
-0.844932 -0.254046 0
-0.732061 -0.435711 0
-0.536080 -0.904364 0
-0.026403 -2.239711 0
0.891076 -4.616847 0
2.147958 -7.841850 0
3.854246 -6.260021 0
1.587760 -2.036099 0
0.374418 -0.594186 0
0.118066 0.342540 0
0.142986 0.252807 0
0.951639 -0.082466 0
0.557638 0.000141 0
0.759672 0.018546 0
0.495962 -0.019527 0
0.680203 -0.018016 0
0.241352 0.034209 0
0.722622 0.037955 0
0.376477 -0.021223 0
0.725766 -0.024418 0
0.636181 0.003439 0
0.705595 -0.001192 0
0.697887 0.002160 0
0.703252 0.004506 0
0.693375 0.005697 0
0.671866 -0.007409 0
0.741690 -0.017823 0
0.814175 -0.005782 0
0.803224 0.007088 0
0.772380 0.004121 0
0.772534 0.000138 0
1.000000 -0.011077 0
1.004498 -0.035063 0
1.017210 -0.062069 0
1.036903 -0.092555 0
1.064696 -0.128631 0
1.101933 -0.172631 0
1.150418 -0.227719 0
1.213080 -0.298735 0
1.292677 -0.389928 0
1.398544 -0.522570 0
1.526551 -0.714714 0
1.654901 -0.978967 0
1.843511 -1.382708 0
2.051049 -2.012331 0
2.310365 -3.381873 0
2.016798 -2.433379 0
0.014250 -0.247511 0
0.000892 0.000000 0
-0.000924 0.040628 0
0.109713 -0.712415 0
1.551584 -1.212139 0
2.155818 -0.728900 0
2.421412 -0.423975 0
2.546092 -0.239510 0
2.611895 -0.123784 0
2.648541 -0.036727 0
2.666558 0.047433 0
2.672388 0.147697 0
2.695041 0.317946 0
2.765143 0.650704 0
2.924514 1.304328 0
2.994639 2.245602 0
2.720909 3.262381 0
2.120759 4.184476 0
1.203725 4.933506 0
0.000000 -0.000042 0
0.000000 -2.635438 0
0.000000 0.000000 0
0.000000 -1.905543 0
0.000000 -0.000027 0
-0.243301 2.818238 0
-0.419281 1.392376 0
-0.558095 0.741565 0
-0.680791 0.446417 0
-0.872261 0.304911 0
-0.996952 0.190850 0
-1.081593 0.087160 0
-1.091698 -0.040753 0
-0.998960 -0.175165 0
-0.826525 -0.300028 0
-0.632620 -0.356562 0
-0.447878 -0.508896 0
-0.342487 -1.131916 0
0.139531 -2.663970 0
0.763311 -5.184604 0
1.485515 -8.528374 0
1.755865 -5.590521 0
0.000318 -0.380033 0
0.000285 0.000000 0
0.000291 -0.015114 0
-0.516123 -0.555534 0
-0.128197 -0.297348 0
0.059433 0.113449 0
-0.171566 0.037086 0
0.010012 0.045565 0
-0.113240 0.165384 0
-0.141084 -0.013239 0
-0.306100 -0.077156 0
-0.436479 -0.006316 0
-0.490393 -0.171226 0
-0.400110 0.013512 0
-0.346082 -0.038026 0
-0.300383 0.004242 0
-0.302470 0.006221 0
-0.303273 0.021933 0
-0.305444 -0.033443 0
-0.271197 -0.095213 0
-0.199520 -0.039622 0
-0.148767 0.029946 0
-0.146114 0.021545 0
-0.145853 -0.000077 0
1.000000 -0.012165 0
1.001313 -0.040001 0
1.013180 -0.071795 0
1.030021 -0.106711 0
1.053780 -0.147961 0
1.085354 -0.197980 0
1.125847 -0.260315 0
1.176970 -0.339954 0
1.240432 -0.444307 0
1.322470 -0.588545 0
1.408553 -0.776560 0
1.497663 -1.054585 0
1.594802 -1.471292 0
1.630917 -2.067130 0
1.450940 -2.895700 0
0.158407 -0.000261 0
-1.143859 1.684926 0
-0.662295 0.000000 0
-0.407699 1.203128 0
0.000000 0.000009 0
1.136155 -1.839180 0
1.586080 -0.983923 0
1.804649 -0.539059 0
1.903711 -0.296089 0
1.962854 -0.153486 0
2.001640 -0.049730 0
2.018774 0.049511 0
2.011094 0.158838 0
2.001418 0.324453 0
2.009529 0.641576 0
2.096260 1.272740 0
2.188017 2.280976 0
2.056897 3.471961 0
1.654333 4.599187 0
0.946252 5.535401 0
0.000000 -0.000094 0
0.000000 -2.974720 0
0.000000 0.000000 0
0.000000 -1.965898 0
0.000000 -0.000035 0
-0.152024 2.927571 0
-0.287109 1.489653 0
-0.406973 0.831463 0
-0.566109 0.540144 0
-0.740558 0.411402 0
-0.895355 0.273166 0
-0.974380 0.112052 0
-0.940367 -0.081217 0
-0.856233 -0.277561 0
-0.680814 -0.404226 0
-0.524676 -0.496378 0
-0.309744 -0.621394 0
-0.165928 -1.280305 0
0.183583 -2.947420 0
0.539786 -5.478275 0
0.848440 -8.477083 0
0.243221 -0.000059 0
0.113496 5.012426 0
1.075243 0.000000 0
1.041883 0.322555 0
0.000000 -0.000285 0
-0.177870 -0.457010 0
-0.096167 0.027899 0
-0.254019 0.050178 0
-0.266608 -0.056853 0
-0.529339 0.078688 0
-0.220265 0.157641 0
-0.907139 0.227010 0
-0.719534 0.096726 0
-1.110918 -0.047692 0
-0.961901 -0.088918 0
-0.958195 -0.065016 0
-0.902647 -0.025750 0
-0.906598 0.006358 0
-0.901248 0.007603 0
-0.878967 -0.027936 0
-0.909040 -0.085612 0
-0.905152 -0.084135 0
-0.839529 -0.027090 0
-0.800858 0.002258 0
-0.800719 -0.000196 0
1.000000 -0.011915 0
0.999685 -0.043495 0
1.009071 -0.080442 0
1.023080 -0.118538 0
1.042136 -0.164042 0
1.067304 -0.218752 0
1.099012 -0.286352 0
1.137833 -0.372068 0
1.184272 -0.483047 0
1.237782 -0.630166 0
1.292568 -0.826837 0
1.350867 -1.098165 0
1.361914 -1.467990 0
1.257037 -1.920258 0
0.888183 -2.439465 0
0.000000 -0.000183 0
0.000000 1.358463 0
0.000000 0.000000 0
0.000000 1.463483 0
0.000000 -0.000057 0
0.685647 -2.210587 0
1.079541 -1.156736 0
1.225831 -0.627257 0
1.284895 -0.340760 0
1.348855 -0.186458 0
1.409261 -0.072514 0
1.439369 0.041383 0
1.420945 0.158806 0
1.390368 0.318949 0
1.427245 0.590006 0
1.485268 1.190097 0
1.580969 2.270795 0
1.524946 3.603939 0
1.255961 4.895291 0
0.721614 5.992281 0
0.000000 -0.000113 0
0.000000 -3.241111 0
0.000000 0.000000 0
0.000000 -2.002851 0
0.000000 -0.000038 0
-0.094901 3.001991 0
-0.195616 1.555545 0
-0.294566 0.920127 0
-0.431108 0.659912 0
-0.633508 0.515630 0
-0.719184 0.340498 0
-0.767259 0.115970 0
-0.742686 -0.116365 0
-0.654395 -0.341278 0
-0.535447 -0.512223 0
-0.394940 -0.594045 0
-0.255679 -0.738493 0
-0.069824 -1.447644 0
0.147306 -3.115625 0
0.357260 -5.610112 0
0.452721 -8.338571 0
0.000000 -0.000048 0
0.000000 4.823099 0
0.000000 0.000000 0
0.000000 0.432241 0
0.000000 -0.000530 0
-0.408759 -0.241988 0
-0.577993 0.162186 0
-0.634590 0.146170 0
-1.003949 0.221773 0
-1.030309 0.135726 0
-1.143851 0.228555 0
-1.093802 0.242379 0
-1.006633 0.124104 0
-1.015699 -0.016109 0
-1.059327 -0.084228 0
-1.033169 -0.075947 0
-1.064909 -0.028778 0
-1.069730 0.005328 0
-1.044184 0.004251 0
-1.055606 -0.028455 0
-1.060409 -0.078453 0
-1.122993 -0.084106 0
-1.134459 -0.036801 0
-1.144127 -0.003292 0
-1.143905 -0.000255 0
1.000000 -0.011962 0
1.000476 -0.045804 0
1.004047 -0.086766 0
1.015721 -0.127871 0
1.029924 -0.176264 0
1.048396 -0.234380 0
1.070982 -0.305452 0
1.097525 -0.394520 0
1.127231 -0.508273 0
1.158927 -0.657853 0
1.189132 -0.848933 0
1.195277 -1.098966 0
1.158280 -1.411239 0
0.999731 -1.763942 0
0.648064 -2.091195 0
0.000000 -0.000088 0
0.000000 1.116661 0
0.000000 0.000000 0
0.000000 1.641834 0
0.000000 -0.000097 0
0.457889 -2.530083 0
0.796624 -1.329640 0
0.833183 -0.670485 0
0.870473 -0.374824 0
0.981909 -0.233079 0
1.138913 -0.107657 0
1.178295 0.042035 0
1.152610 0.190200 0
1.066576 0.320423 0
1.002173 0.580842 0
1.051462 1.174358 0
1.144545 2.255583 0
1.130196 3.679967 0
0.941162 5.113321 0
0.531247 6.339217 0
0.000000 -0.000064 0
0.000000 -3.436523 0
0.000000 0.000000 0
0.000000 -2.026641 0
0.000000 -0.000040 0
-0.059244 3.052768 0
-0.128235 1.617440 0
-0.212243 0.982180 0
-0.340601 0.757068 0
-0.470696 0.595772 0
-0.522881 0.358768 0
-0.507303 0.127095 0
-0.484452 -0.153449 0
-0.391810 -0.410192 0
-0.328257 -0.570276 0
-0.252529 -0.675429 0
-0.160765 -0.829467 0
-0.036059 -1.538213 0
0.101723 -3.220753 0
0.233645 -5.673738 0
0.247172 -8.248435 0
0.000000 -0.000050 0
0.000000 4.722693 0
0.000000 0.000000 0
0.000000 0.060319 0
0.000000 -0.000913 0
-1.058033 -0.087091 0
-0.786820 0.172433 0
-1.072102 0.322792 0
-0.967243 0.196409 0
-0.983044 0.168227 0
-0.984533 0.198279 0
-0.764372 0.139192 0
-0.594570 0.046743 0
-0.582885 -0.013967 0
-0.622626 -0.077735 0
-0.470010 -0.061441 0
-0.410289 -0.002349 0
-0.333452 -0.006904 0
-0.339252 -0.001435 0
-0.352173 -0.017550 0
-0.302517 -0.042482 0
-0.422561 -0.036741 0
-0.359196 -0.013562 0
-0.419348 0.008305 0
-0.419289 -0.000480 0
1.000000 -0.012218 0
1.001022 -0.046084 0
0.999565 -0.090198 0
1.007973 -0.135098 0
1.017130 -0.184953 0
1.028945 -0.245028 0
1.042937 -0.317793 0
1.058415 -0.408066 0
1.073944 -0.522342 0
1.088608 -0.669781 0
1.093617 -0.850099 0
1.070459 -1.078419 0
1.000479 -1.342839 0
0.817155 -1.593719 0
0.479308 -1.799636 0
0.000000 -0.000088 0
0.000000 0.943796 0
0.000000 0.000000 0
0.000000 1.756476 0
0.000000 -0.000111 0
0.296267 -2.720424 0
0.472686 -1.396922 0
0.509700 -0.674520 0
0.609739 -0.435943 0
0.745537 -0.358258 0
0.923250 -0.198200 0
0.972080 0.032618 0
0.973744 0.230307 0
0.883136 0.415230 0
0.763706 0.599681 0
0.759057 1.098980 0
0.838400 2.220407 0
0.843703 3.734106 0
0.692967 5.278619 0
0.395234 6.594626 0
0.000000 0.000011 0
0.000000 -3.580986 0
0.000000 0.000000 0
0.000000 -2.040773 0
0.000000 -0.000041 0
-0.032272 3.084064 0
-0.073753 1.653466 0
-0.119593 1.056043 0
-0.224201 0.825324 0
-0.284394 0.632290 0
-0.310338 0.363927 0
-0.300097 0.091377 0
-0.193211 -0.190279 0
-0.146927 -0.441240 0
-0.172287 -0.601361 0
-0.141349 -0.701239 0
-0.076539 -0.877032 0
-0.011753 -1.615634 0
0.083719 -3.288234 0
0.160115 -5.703197 0
0.147865 -8.189036 0
0.000000 -0.000053 0
0.000000 4.664904 0
0.000000 0.000000 0
0.000000 -0.244742 0
0.000000 -0.000370 0
-0.600983 0.261580 0
-0.862748 0.171192 0
-0.848234 0.261642 0
-0.768289 0.164778 0
-0.478052 0.146794 0
-0.456347 0.088607 0
-0.376861 -0.007196 0
-0.394148 0.007954 0
-0.274895 0.001848 0
-0.288436 -0.156466 0
-0.207072 -0.211841 0
0.015807 -0.116173 0
0.130057 -0.040133 0
0.086934 0.016235 0
0.075966 -0.051963 0
-0.098422 -0.033402 0
0.095594 -0.047830 0
0.142138 -0.038856 0
0.100844 0.035170 0
0.100741 -0.000330 0
1.000000 -0.012615 0
0.999897 -0.045523 0
0.999682 -0.091213 0
1.000678 -0.139112 0
1.005296 -0.189684 0
1.010835 -0.250895 0
1.017412 -0.324312 0
1.023692 -0.414363 0
1.028185 -0.527596 0
1.030967 -0.670443 0
1.008967 -0.837316 0
0.975540 -1.039356 0
0.867484 -1.249123 0
0.663281 -1.430391 0
0.377006 -1.568215 0
0.000000 -0.000059 0
0.000000 0.809933 0
0.000000 0.000000 0
0.000000 1.831439 0
0.000000 -0.000102 0
0.192014 -2.832601 0
0.288451 -1.466236 0
0.403460 -0.758198 0
0.448131 -0.525758 0
0.554063 -0.433725 0
0.670040 -0.252644 0
0.728729 0.009719 0
0.758535 0.247126 0
0.689368 0.454848 0
0.617469 0.660253 0
0.553068 1.126555 0
0.609418 2.201410 0
0.627098 3.773046 0
0.518238 5.400343 0
0.298858 6.782717 0
0.000000 0.000067 0
0.000000 -3.689343 0
0.000000 0.000000 0
0.000000 -2.047299 0
0.000000 -0.000042 0
-0.010016 3.099972 0
-0.028210 1.673327 0
-0.044937 1.078468 0
-0.091527 0.862543 0
-0.085967 0.650902 0
-0.061340 0.368820 0
-0.082379 0.052135 0
0.021298 -0.251476 0
0.033859 -0.423582 0
-0.006866 -0.573844 0
-0.054596 -0.736706 0
-0.019479 -0.912406 0
0.017001 -1.640777 0
0.082667 -3.330747 0
0.125217 -5.714790 0
0.101132 -8.145959 0
0.000000 -0.000053 0
0.000000 4.628055 0
0.000000 0.000000 0
0.000000 -0.322516 0
0.000000 0.000883 0
-0.165367 0.465071 0
-0.522752 0.330676 0
-0.457813 0.262341 0
-0.331486 -0.040506 0
-0.027810 -0.031414 0
0.062731 0.133518 0
-0.007531 0.099387 0
-0.161971 -0.018514 0
-0.048737 -0.081621 0
-0.010824 -0.121139 0
-0.040687 -0.256155 0
-0.010544 -0.218109 0
-0.021527 -0.052423 0
-0.088090 0.033185 0
-0.149965 0.101080 0
-0.204883 -0.055043 0
0.040176 -0.190697 0
-0.059679 -0.016920 0
-0.043437 0.034801 0
-0.043377 -0.000349 0
1.000000 -0.012150 0
0.998829 -0.045878 0
0.999299 -0.090696 0
0.996413 -0.138690 0
0.997178 -0.191453 0
0.997576 -0.252781 0
0.998377 -0.326021 0
0.996334 -0.414960 0
0.993556 -0.526997 0
0.975793 -0.657480 0
0.940728 -0.814625 0
0.869485 -0.987868 0
0.752694 -1.142993 0
0.558187 -1.279812 0
0.309191 -1.375135 0
0.000000 -0.000029 0
0.000000 0.702571 0
0.000000 0.000000 0
0.000000 1.879394 0
0.000000 -0.000081 0
0.121832 -2.905031 0
0.192229 -1.532247 0
0.289183 -0.776714 0
0.219808 -0.532328 0
0.287071 -0.500279 0
0.353578 -0.309985 0
0.374186 -0.024018 0
0.429707 0.255499 0
0.458441 0.505513 0
0.384544 0.686913 0
0.372281 1.104134 0
0.436437 2.173029 0
0.467998 3.792462 0
0.398153 5.488694 0
0.230381 6.926299 0
0.000000 0.000083 0
0.000000 -3.772184 0
0.000000 0.000000 0
0.000000 -2.047187 0
0.000000 -0.000044 0
0.010483 3.102121 0
0.014096 1.675817 0
0.029866 1.096567 0
0.013201 0.851585 0
0.090353 0.612972 0
0.121947 0.361632 0
0.156931 0.038490 0
0.167362 -0.264669 0
0.140036 -0.423215 0
0.124413 -0.544748 0
0.064582 -0.693165 0
0.017387 -0.922853 0
0.053879 -1.681006 0
0.098751 -3.357491 0
0.119045 -5.715013 0
0.084644 -8.108896 0
0.000000 -0.000049 0
0.000000 4.600183 0
0.000000 0.000000 0
0.000000 -0.349028 0
0.000000 0.001182 0
-0.053510 0.596145 0
-0.319600 0.358359 0
-0.237622 0.139234 0
0.058720 -0.110422 0